<?xml version="1.0"?>
<VTKFile type="StructuredGrid"  version="0.1" byte_order="LittleEndian" compressor="vtkZLibDataCompressor">
  <StructuredGrid WholeExtent="0 200 0 20 0 0">
    <Piece Extent="0 200 0 20 0 0">
      <PointData Vectors="Velocity">
        <DataArray type="Float32" Name="Velocity" NumberOfComponents="3" format="ascii">
10.0039 -0.186218 0
9.50492 0.703115 0
9.89705 0.212003 0
8.92575 0.792959 0
7.91822 0.551925 0
9.10068 0.112886 0
8.21614 1.05801 0
6.23856 1.04936 0
7.95801 0.375271 0
7.02074 0.23837 0
6.94618 0.583519 0
6.07107 0.128714 0
5.92257 0.175107 0
5.11129 0.747109 0
3.47703 0.471646 0
2.12936 0.394995 0
0.977154 -0.830743 0
0.212936 -0.970199 0
-0.202281 -0.524421 0
-0.215427 -0.63113 0
-0.392322 0.326447 0
0.221094 -1.14267 0
0.0217458 -1.28605 0
-0.570405 -0.640683 0
-0.656015 -1.25375 0
-0.259509 -1.52116 0
-1.7199 -1.3747 0
-1.86715 -1.02956 0
-1.76104 -0.510494 0
-1.63941 -0.273632 0
-1.30266 -0.166696 0
-1.45777 -0.0916564 0
-1.08743 -0.3537 0
-0.546255 -0.293448 0
-0.482439 -0.187534 0
-0.272994 -0.253404 0
-0.308377 -0.157923 0
-0.150848 -0.162739 0
-0.19115 -0.00881267 0
-0.0967828 -0.114757 0
0.84148 0.0441984 0
0.885073 0.187883 0
0.644289 0.180163 0
0.655257 0.0915458 0
0.66249 0.0759208 0
0.426966 0.0342248 0
0.222624 0.064414 0
0.0778373 0.0372169 0
0.0919731 -0.00551976 0
0.0194016 0.0328278 0
0.029404 0.0246746 0
0.0333258 -0.0134895 0
0.000423672 0.0491702 0
0.0651101 0.052166 0
0.142645 0.0166157 0
0.22156 0.0719626 0
0.231315 -0.0253098 0
0.293618 -0.0576083 0
0.14217 -0.131734 0
0.338216 -0.29626 0
0.301255 -0.369422 0
0.299393 -0.465981 0
0.328239 -0.344105 0
0.324038 -0.246024 0
0.327887 -0.249688 0
0.321441 -0.106101 0
0.302284 -0.0472068 0
0.318258 -0.0164127 0
0.19598 0.023507 0
0.0657278 0.409327 0
0.0724773 0.571974 0
0.100459 0.624046 0
0.0581727 0.619447 0
0.0382702 0.522909 0
-0.052093 0.39347 0
0.0276151 0.165015 0
-0.0569051 -0.0198144 0
-0.0737089 0.0454801 0
-0.135115 0.267558 0
-0.0806348 0.298588 0
-0.369929 0.233098 0
-0.341426 0.224497 0
-0.492214 0.0659379 0
-0.430992 0.291936 0
-0.547035 0.380848 0
-0.688582 0.413065 0
-0.440533 0.257101 0
-0.456592 0.182986 0
-0.17267 0.28804 0
-0.0609881 0.354334 0
-0.281311 0.234666 0
-0.142287 0.388321 0
-0.190643 0.234771 0
-0.0921107 0.191237 0
-0.0739871 0.495932 0
-0.0431972 0.418949 0
-0.0415363 0.349566 0
-0.0132909 0.369979 0
-0.00965652 0.31245 0
-0.0295359 0.246672 0
0.0116902 0.187422 0
-0.0643641 0.189084 0
-0.0817199 0.195098 0
-0.0899127 0.220672 0
-0.101328 0.0891339 0
-0.100511 0.166169 0
-0.176108 0.241275 0
-0.131237 0.422294 0
-0.0163509 0.407088 0
-0.00241413 0.522101 0
0.0429438 0.760312 0
0.116938 0.55198 0
0.147095 0.609692 0
0.239681 0.473049 0
0.202891 0.408272 0
0.198486 0.467108 0
0.0807847 0.36698 0
0.115068 0.216816 0
0.0770212 0.177238 0
-0.0282546 0.0465034 0
-0.057296 0.0317881 0
-0.0686989 0.12327 0
-0.039343 0.152003 0
-0.0540291 0.127109 0
-0.0737404 0.0954042 0
-0.0735087 0.0528134 0
-0.0605127 0.121684 0
-0.0286274 0.106231 0
-0.0620907 0.0624739 0
-0.0915894 0.0754742 0
-0.0611823 0.0549891 0
-0.0239214 0.203544 0
-0.035997 0.119435 0
-0.0302468 0.187233 0
-0.00934453 0.255038 0
-0.0111271 0.26027 0
-0.00441589 0.264837 0
0.0333232 0.267389 0
0.0180195 0.269415 0
0.0328408 0.236965 0
0.0693212 0.24009 0
0.0683694 0.219927 0
0.0648842 0.194208 0
0.0716502 0.175416 0
0.0643071 0.131684 0
0.0469896 0.10988 0
0.0594971 0.139108 0
0.0627447 0.0730087 0
0.0517125 0.0564196 0
0.051844 0.0671241 0
0.0464254 0.0385835 0
0.0375374 0.0104073 0
0.0486651 0.0101349 0
0.0358352 0.0189485 0
0.0426052 0.00586319 0
0.0306182 -0.00236578 0
0.0259503 0.00578217 0
0.0111105 -0.00154289 0
0.0194448 -0.00768 0
0.0183003 -0.0111195 0
0.0120106 -0.0196753 0
0.00245994 -0.0175417 0
0.00846533 -0.00767026 0
0.00313112 -0.00629905 0
0.0148768 -0.011376 0
0.0110097 -0.00553561 0
0.00965878 -0.0222049 0
0.0140595 -0.0279099 0
0.0024989 -0.0341991 0
-0.00478565 -0.0300112 0
-0.00125043 -0.0255021 0
0.002077 -0.0187332 0
0.00385503 -0.0146421 0
0.00621555 -0.00872922 0
0.0150937 -0.0086805 0
0.0215615 -0.00708178 0
0.0212506 -0.00682282 0
0.0148724 -0.0116779 0
0.00427861 -0.0095887 0
0.000793134 -0.0092118 0
0.00566753 -0.00451317 0
0.00805077 -0.0129366 0
0.00886093 -0.0206933 0
0.015184 -0.00717844 0
0.0201769 -0.000341468 0
0.0197555 -0.0226387 0
0.0119378 -0.0181203 0
0.0065191 -0.0325636 0
-0.00537891 -0.032294 0
-0.00072726 -0.00995927 0
0.00808395 -0.00761901 0
0.00852515 -0.0225504 0
0.0029257 -0.0347519 0
-0.00408283 -0.0420869 0
-0.00282752 -0.0174243 0
0.00502834 -0.00137595 0
-0.00149614 -0.00966991 0
-0.00103863 -0.0266468 0
0.00830762 -0.0106041 0
0.00293488 -0.0297191 0
0 -0.0314398 0
10.0039 0.100705 0
9.89302 0.408791 0
10.0815 0.431542 0
8.05596 0.637238 0
10.2816 0.331861 0
6.96368 0.827362 0
9.59388 0.702227 0
7.25736 0.527625 0
7.86658 0.630672 0
7.31493 0.328968 0
6.32447 0.00631433 0
5.79247 0.775993 0
6.42395 0.37826 0
5.13491 0.317719 0
3.09994 -0.00258621 0
1.59641 -0.321304 0
0.648531 -0.235143 0
0.295573 -0.247836 0
0.0249515 -0.171277 0
-0.385128 -0.808439 0
-0.486983 -0.784608 0
-0.651584 -0.287618 0
-0.603333 -0.13003 0
-0.311229 -1.318 0
-0.360547 -1.37446 0
-0.995182 -1.38475 0
-0.875079 -1.17737 0
-1.26791 -1.09566 0
-1.54127 -0.520237 0
-1.51102 -0.269361 0
-1.25601 -0.13016 0
-1.01186 -0.117011 0
-1.03493 -0.142584 0
-0.767721 -0.225135 0
-0.553305 -0.25044 0
-0.327612 -0.221904 0
-0.151161 -0.0482405 0
-0.0327694 -0.0190294 0
-0.138174 -0.0105831 0
0.143103 0.0792948 0
0.67462 0.157954 0
0.639398 0.16367 0
0.845658 0.110852 0
0.736166 0.0485675 0
0.57604 -0.00408214 0
0.346911 0.0401363 0
0.194249 0.032543 0
0.143107 0.0229711 0
0.107919 0.0103505 0
0.103458 -0.0482159 0
0.0876015 0.0101543 0
0.100099 -0.014165 0
0.0330509 0.0503471 0
0.0625578 0.0576355 0
0.0672207 -0.0436403 0
0.108046 0.068664 0
0.0966218 0.00513427 0
0.164064 -0.0995654 0
0.164754 -0.128768 0
0.145519 -0.162807 0
0.194918 -0.234333 0
0.432538 -0.175495 0
0.443653 -0.154056 0
0.457392 -0.0911246 0
0.519266 -0.123173 0
0.565856 -0.192709 0
0.657445 -0.108892 0
0.527814 -0.038469 0
0.54667 0.0700994 0
0.460805 0.253934 0
0.236246 0.482044 0
0.205649 0.57559 0
0.0389183 0.648428 0
-0.0896934 0.458002 0
-0.0528718 0.28244 0
-0.321559 0.0862053 0
-0.307084 -0.028615 0
-0.346974 -0.0169927 0
-0.280351 0.0723701 0
-0.24737 0.270113 0
-0.298913 0.296518 0
-0.229132 0.399968 0
-0.362223 0.343218 0
-0.281402 0.323306 0
-0.316024 0.408009 0
-0.610126 0.392039 0
-0.412544 0.325581 0
-0.462962 0.294313 0
-0.32105 0.393135 0
-0.195445 0.420689 0
-0.274031 0.266817 0
0.0300829 0.406252 0
0.00416305 0.359071 0
-0.0494982 0.391323 0
-0.17473 0.363277 0
-0.164896 0.261113 0
-0.107983 0.249338 0
-0.0214133 0.258203 0
-0.105981 0.178118 0
-0.0724528 0.0546483 0
-0.000600061 0.173669 0
-0.114859 0.152296 0
-0.0875392 0.182508 0
-0.0913531 0.168894 0
-0.0715625 0.185954 0
-0.0467428 0.174616 0
-0.0309839 0.237757 0
-0.0175735 0.427515 0
0.00732559 0.570081 0
0.0303828 0.557725 0
0.0744594 0.673031 0
0.0883551 0.563619 0
0.147659 0.621676 0
0.0567635 0.556266 0
0.0165742 0.630472 0
0.100549 0.493944 0
0.0348349 0.422926 0
0.0136539 0.176409 0
-0.0454435 0.155583 0
-0.0612908 0.074246 0
-0.0654566 0.0935632 0
-0.0764975 0.103266 0
-0.106864 0.0650846 0
-0.0940656 0.121243 0
-0.106217 0.15304 0
-0.12167 0.141262 0
-0.0906607 0.114337 0
-0.068746 0.120879 0
-0.0597107 0.0699837 0
-0.0567964 0.134178 0
-0.0339103 0.126623 0
-0.0193254 0.170213 0
-0.0147652 0.175134 0
-0.00828137 0.252158 0
-0.00562033 0.192653 0
0.000945762 0.237447 0
-0.00414955 0.275202 0
0.01472 0.282359 0
0.0215497 0.238649 0
0.0339226 0.26947 0
0.0566316 0.243474 0
0.0546874 0.17348 0
0.0527318 0.216847 0
0.0613475 0.178643 0
0.0471889 0.114716 0
0.0513652 0.099129 0
0.0504205 0.117817 0
0.0541622 0.0605063 0
0.0356261 0.0777356 0
0.0203304 0.0245771 0
0.0400261 0.0141191 0
0.0263461 0.0115611 0
0.0243544 0.00343141 0
0.0233317 0.0148454 0
0.0192397 0.00568585 0
0.0176674 -0.000791913 0
0.00647751 0.00241875 0
0.0168439 -0.00351748 0
0.00825493 -0.0092803 0
0.00622967 -0.00973912 0
0.00853033 -0.0151386 0
0.013697 -0.00865345 0
0.010618 -0.013018 0
0.0114434 -0.00825563 0
0.00786774 -0.011978 0
0.00408857 -0.0082229 0
0.00937571 -0.0220242 0
0.00513726 -0.0221141 0
0.00297937 -0.0388523 0
0.00309343 -0.0309424 0
0.00458288 -0.0226281 0
0.00860534 -0.017432 0
0.00584873 -0.0119669 0
0.0093718 -0.00949865 0
0.0171818 -0.00741296 0
0.0189876 -0.00415837 0
0.0174927 -0.00640431 0
0.0129936 -0.00946632 0
0.00549373 -0.00992356 0
0.00713924 -0.00178492 0
0.00458436 -0.00304447 0
0.00322738 -0.0127481 0
0.00566535 -0.00933523 0
0.00978746 -0.00600305 0
0.00986532 -0.00456891 0
0.0119767 -0.0165781 0
0.0098483 -0.00952992 0
0.0103887 -0.0249466 0
0.00962873 -0.0190699 0
0.00750965 -0.0138776 0
0.00421771 -0.00591469 0
-0.000517195 -0.0173611 0
-0.000258026 -0.0171742 0
0.00531753 -0.0220215 0
0.00182161 -0.0126112 0
-0.00246797 -0.00805352 0
-0.00109089 -0.0129855 0
0.00082529 -0.0108187 0
-0.000182011 -0.0156164 0
-0.000949998 -0.0142933 0
0 -0.00189598 0
10.0039 0.332005 0
9.5465 0.038724 0
9.13176 0.354633 0
8.77888 0.145706 0
8.57859 0.0195647 0
7.95005 0.702138 0
8.12586 0.513847 0
7.20175 0.260404 0
7.75085 1.12006 0
6.84008 0.457752 0
6.30312 0.351497 0
6.06639 0.530747 0
5.33399 0.0625667 0
4.23189 -0.171054 0
2.74535 -0.149535 0
1.1519 -0.104377 0
0.315841 -0.0800992 0
0.103212 -0.35614 0
-0.0585233 -0.24847 0
-0.113023 0.0108181 0
-0.374789 -0.559903 0
-0.546579 -1.41567 0
-0.647709 -1.21864 0
-0.699361 -0.895761 0
-0.531099 -1.14738 0
-0.270468 -1.31182 0
-0.323688 -1.09947 0
-0.366092 -0.691049 0
-0.664768 -0.558746 0
-1.22549 -0.329636 0
-1.36851 -0.176251 0
-1.00274 -0.117508 0
-0.765276 -0.136636 0
-0.829523 -0.158377 0
-0.456043 -0.170933 0
-0.185421 -0.0929275 0
-0.156814 -0.0111389 0
0.0661612 0.0315046 0
-0.128593 0.0632989 0
0.459914 -0.0303818 0
1.10159 0.133536 0
1.00466 0.0637035 0
0.673946 0.0455951 0
0.530098 -0.0160329 0
0.453992 0.0443702 0
0.425171 0.065529 0
0.333603 0.0600542 0
0.286278 0.0477417 0
0.151718 0.0454008 0
0.199747 -0.0027614 0
0.20094 0.00549522 0
0.169014 -0.0165194 0
0.159921 0.104437 0
0.152749 0.016924 0
0.188014 -0.0224399 0
0.188843 0.00687151 0
0.170421 -0.0227517 0
0.187018 -0.0764692 0
0.211244 -0.107289 0
0.295625 -0.0975233 0
0.248314 -0.1419 0
0.074397 -0.179348 0
0.132236 -0.12588 0
0.222249 -0.231105 0
0.14919 -0.101244 0
0.0823486 0.0723926 0
0.09654 0.0813554 0
0.23397 -0.0702388 0
0.378037 -0.010945 0
0.465679 0.103664 0
0.550325 0.156615 0
0.425033 0.473732 0
0.110938 0.461035 0
-0.00853192 0.449697 0
-0.161561 0.191117 0
-0.192129 -0.092145 0
-0.332302 -0.0512507 0
-0.194402 0.0405842 0
-0.370564 0.0484929 0
-0.135669 0.242317 0
-0.385261 0.43599 0
-0.309621 0.390831 0
-0.158545 0.375773 0
-0.243602 0.383272 0
-0.382007 0.472351 0
-0.311318 0.570074 0
-0.351202 0.462253 0
-0.350462 0.502848 0
-0.24604 0.54944 0
-0.196792 0.494165 0
-0.0622058 0.451136 0
-0.0689466 0.459843 0
0.125099 0.439663 0
-0.0223365 0.379567 0
-0.0826515 0.297132 0
-0.219588 0.268325 0
-0.111839 0.238029 0
-0.104088 0.130359 0
-0.0276781 0.0847615 0
-0.0573545 0.0446142 0
-0.00801674 0.120023 0
-0.116755 0.162306 0
-0.0779449 0.171083 0
-0.0438946 0.191359 0
-0.0170035 0.193416 0
0.0232366 0.21413 0
0.0838855 0.242175 0
0.0979126 0.361017 0
0.0951681 0.603048 0
0.151111 0.643066 0
0.12927 0.834484 0
0.100602 0.56471 0
0.156659 0.506618 0
0.0778862 0.524356 0
-0.0269055 0.540727 0
0.00341997 0.487011 0
-0.026143 0.39566 0
-0.0401709 0.173876 0
-0.0377729 0.206767 0
0.00222143 0.162349 0
0.00501229 0.104559 0
0.0108744 0.100677 0
0.0330403 -0.0256155 0
-0.0482272 0.0108215 0
-0.0570562 0.0478203 0
-0.17941 0.137176 0
-0.149313 0.18287 0
-0.150925 0.162103 0
-0.116081 0.0964555 0
-0.1029 0.121326 0
-0.0802595 0.137623 0
-0.046979 0.214611 0
-0.0351989 0.221608 0
-0.0214918 0.247641 0
-0.0135716 0.222246 0
-4.20253e-05 0.268247 0
0.00736021 0.257664 0
0.0223213 0.27382 0
0.0242482 0.211052 0
0.0246372 0.193404 0
0.0446106 0.171352 0
0.0270072 0.143167 0
0.0182725 0.163683 0
0.0419954 0.163834 0
0.0340098 0.111123 0
0.0407243 0.107101 0
0.0412494 0.0952526 0
0.026829 0.0710251 0
0.0437169 0.0633094 0
0.0410981 0.0605091 0
0.0257253 0.0146349 0
0.0234962 0.00158223 0
0.0208804 0.0252769 0
0.0258922 0.0154655 0
0.0210081 0.00414062 0
0.0195969 -0.00208289 0
0.0170873 -9.53518e-06 0
0.0166328 -0.00572341 0
0.0129989 -0.0116962 0
0.00890319 -0.00984648 0
0.00703935 -0.00944736 0
0.00779298 -0.00693553 0
0.00443091 -0.0130648 0
0.000449264 -0.00826882 0
0.00224074 -0.0138576 0
0.00526479 -0.013115 0
0.00216396 -0.0249949 0
-0.000740483 -0.0325666 0
-0.00371568 -0.0337464 0
0.00808862 -0.035553 0
0.00546586 -0.0239455 0
0.00886832 -0.0165925 0
0.00937782 -0.00892622 0
0.00477908 -0.00706153 0
0.00848162 -0.00704701 0
0.0129645 -0.00535079 0
0.010364 -0.00868238 0
0.00495038 -0.00809323 0
0.00399631 -0.00578082 0
0.00645591 -0.011111 0
0.00530681 -0.0133464 0
0.00569914 -0.00617208 0
0.00471893 -0.0136752 0
0.00662748 -0.0147972 0
0.00466203 -0.00264429 0
0.00530824 -0.0105137 0
0.0108208 -0.0195115 0
0.0079476 -0.0214791 0
0.00584766 -0.0210217 0
0.00661046 -0.00747338 0
0.00627177 -0.0107816 0
-0.000528327 -0.0188473 0
0.00177898 -0.0164731 0
0.00228875 -0.0198506 0
0.000627076 -0.00915784 0
-0.00301874 -0.0134803 0
-0.00102721 -0.019785 0
1.65772e-05 -0.0222703 0
-0.0015971 -0.0153327 0
0.000990269 -0.0173233 0
0 -0.0258124 0
10.0039 0.142334 0
10.196 -0.0371634 0
9.63842 -0.031103 0
9.72509 0.328212 0
9.98816 0.419252 0
8.14118 0.138565 0
8.83186 0.477596 0
7.01055 0.656512 0
6.34648 0.68062 0
7.06125 0.654164 0
5.22136 0.175536 0
5.42999 0.358477 0
4.31399 0.194684 0
3.38182 -1.0594 0
2.39917 -0.520038 0
1.10153 -0.248678 0
0.240186 0.150661 0
0.228196 -0.547401 0
0.106863 -0.9076 0
-0.167531 -0.663817 0
-0.112033 -0.426296 0
-0.153404 -0.41685 0
-0.206303 -0.303547 0
-0.399264 -0.440006 0
-0.264751 -1.06995 0
-0.0767262 -0.873524 0
-0.138947 -0.812674 0
-0.549168 -0.532978 0
-0.178054 -0.439884 0
-0.835649 -0.329711 0
-1.25825 -0.177892 0
-1.11709 -0.19413 0
-0.857939 -0.157338 0
-0.837383 -0.123528 0
-0.624412 -0.129267 0
-0.442173 -0.0461659 0
-0.200039 0.00116293 0
-0.0144067 0.0218372 0
0.0350755 -0.0649795 0
0.119237 -0.0330664 0
0.95342 0.0402289 0
0.809061 0.0846892 0
0.831648 0.0780821 0
0.791931 0.0640189 0
0.762845 -0.0272905 0
0.562632 0.0817174 0
0.478378 0.119684 0
0.376184 0.0648172 0
0.290606 0.0145045 0
0.372493 0.0323243 0
0.327937 0.0770322 0
0.440679 0.0749637 0
0.465109 0.00648649 0
0.354882 -0.0814041 0
0.427902 -0.0728653 0
0.276292 -0.0734475 0
0.349028 -0.102126 0
0.446206 -0.0685837 0
0.536981 -0.151475 0
0.550272 0.0521829 0
0.327661 0.0192929 0
0.259381 -0.0593533 0
0.23685 0.00482515 0
0.34511 -0.0144164 0
0.401409 -0.0932226 0
0.268278 -0.0430753 0
0.212276 0.0515493 0
0.254213 0.0197756 0
0.15451 0.0370666 0
0.479045 -0.0189233 0
0.441593 0.0510556 0
0.412277 0.0286869 0
0.189337 0.207456 0
0.0892258 0.261895 0
-0.149316 0.0922101 0
-0.437181 -0.169802 0
-0.423703 -0.172291 0
-0.31268 -0.0272879 0
-0.315591 0.0629724 0
-0.177847 0.0496278 0
-0.165522 0.307211 0
-0.356364 0.341564 0
-0.235104 0.415877 0
-0.179927 0.420404 0
-0.494244 0.535331 0
-0.434968 0.596212 0
-0.265657 0.618341 0
-0.228009 0.791607 0
-0.0730844 0.640792 0
-0.113166 0.40788 0
-0.0544732 0.713158 0
-0.0847871 0.511227 0
-0.0225673 0.443563 0
-0.16312 0.421236 0
-0.109106 0.288703 0
-0.0700328 0.234365 0
-0.0338665 0.179082 0
-0.0857762 0.127414 0
-0.101063 0.121741 0
-0.0271342 0.039513 0
0.0420225 0.120217 0
-0.0741407 0.13292 0
-0.0273801 0.212799 0
0.0281635 0.236802 0
0.0822947 0.209401 0
0.105387 0.21822 0
0.143694 0.249947 0
0.109475 0.355126 0
0.123548 0.555197 0
0.162506 0.712293 0
0.130469 0.674463 0
0.0292848 0.578172 0
0.0731925 0.541285 0
0.0243616 0.559542 0
-0.00675957 0.463397 0
-0.150021 0.362348 0
-0.138206 0.397071 0
-0.0445411 0.388697 0
-0.0274299 0.320336 0
-0.0575981 0.235522 0
-0.026628 0.144804 0
-0.0641988 0.127064 0
-0.0478313 0.0256512 0
-0.0621926 0.067587 0
-0.0400932 0.0525764 0
-0.0414731 0.0248361 0
-0.0175287 0.076586 0
-0.110262 0.151577 0
-0.198646 0.143481 0
-0.146662 0.179183 0
-0.150986 0.220253 0
-0.131764 0.175144 0
-0.0838949 0.199169 0
-0.0615152 0.109856 0
-0.0252749 0.0833375 0
-0.0173495 0.142292 0
-0.00194033 0.233626 0
0.0210274 0.252746 0
0.0289401 0.165158 0
0.0249773 0.155945 0
0.0169948 0.160919 0
0.0129945 0.101144 0
0.0189802 0.112509 0
0.0100951 0.15639 0
0.00301869 0.112019 0
0.0313746 0.116393 0
0.0251518 0.105413 0
0.0127762 0.0834783 0
0.0164927 0.082048 0
0.01611 0.0143223 0
0.0143638 0.002737 0
0.00982388 0.0311448 0
0.0182641 0.0226962 0
0.0106696 0.00577935 0
0.00569015 -0.00147074 0
0.00923357 0.00270015 0
0.00837854 -0.0051578 0
0.00215755 -0.00916867 0
0.00591353 -0.017557 0
0.0012399 -0.0194378 0
-0.000612316 -0.0218952 0
-0.00044796 -0.014816 0
0.00441296 -0.0082126 0
0.00771637 5.78711e-05 0
0.00654554 -0.0119116 0
0.00338483 -0.0120556 0
0.00130973 -0.0344471 0
-0.0012696 -0.0325824 0
0.00118792 -0.0267379 0
0.00231782 -0.0346442 0
0.00130688 -0.0262821 0
-0.0020485 -0.0209296 0
0.000607964 -0.0129553 0
0.00234569 -0.00458291 0
0.00537794 -0.00864419 0
0.00176252 -0.00872195 0
0.00262916 -0.011413 0
0.0032754 -0.00142957 0
0.00225239 -0.00760697 0
0.000675736 -0.00743075 0
0.000922319 -0.0121297 0
0.00147072 -0.0152036 0
-0.000740797 -0.0140335 0
0.00155643 -0.0144124 0
0.00136113 -0.0144419 0
0.00358115 -0.0304156 0
0.0034182 -0.0156011 0
0.00106338 -0.0192126 0
0.00287498 -0.0257102 0
0.00416592 -0.0258768 0
-0.00103756 -0.0242207 0
0.0016607 -0.0176028 0
-0.000474416 -0.0187345 0
0.000189422 -0.0147061 0
0.000904354 -0.0220048 0
0.00170482 -0.0202206 0
-0.00316942 -0.0123332 0
-0.00203183 -0.0152049 0
0.00149831 -0.0191448 0
-0.000141176 -0.0218303 0
0 -0.0205133 0
10.0039 0.125904 0
9.44384 0.0195424 0
9.72686 -0.0495878 0
8.77029 0.139735 0
9.15253 0.00271354 0
7.61761 -0.0586564 0
8.4251 0.120613 0
7.70697 0.240599 0
5.68639 0.359583 0
6.89915 0.517171 0
5.17801 0.220019 0
5.58199 -0.205171 0
4.38173 -0.0687876 0
2.37987 -0.653323 0
2.36587 -0.702968 0
1.15111 -0.352149 0
0.276016 -0.0310953 0
-0.148152 -0.268544 0
-0.120823 -0.603184 0
-0.0735505 -0.476291 0
-0.0738196 -0.504671 0
-0.0751152 -0.82431 0
-0.00821386 -0.5549 0
-0.173098 -0.401389 0
-0.144773 -0.674154 0
-0.0271025 -0.650657 0
0.0714511 -0.409145 0
-0.343236 -0.440317 0
-0.502046 -0.347962 0
-0.593523 -0.358217 0
-0.790157 -0.373292 0
-1.05544 -0.210915 0
-0.830269 -0.271569 0
-0.724315 -0.234602 0
-0.751065 -0.0476178 0
-0.58668 -0.043336 0
-0.311644 -0.0311622 0
-0.29573 -0.122638 0
-0.0225013 -0.0464174 0
-0.0134057 -0.115738 0
0.855207 -0.132996 0
0.941821 -0.0231823 0
0.824984 0.0360259 0
0.837503 0.062553 0
0.848388 0.0159782 0
0.650017 0.023102 0
0.385259 0.0277713 0
0.246649 0.0994723 0
0.264551 -0.0290642 0
0.157833 -0.017364 0
0.110395 0.019049 0
0.0326173 0.00823234 0
0.0744291 0.0326668 0
0.323865 -0.0446784 0
0.565724 -0.138227 0
0.668275 -0.206815 0
0.801875 -0.155828 0
1.02374 -0.0332495 0
1.14231 0.0466649 0
1.02136 0.0793363 0
0.839491 -0.0391448 0
0.756671 0.00959242 0
0.574928 0.0185758 0
0.644727 0.00624341 0
0.556189 0.0371207 0
0.510787 -0.0473678 0
0.695473 -0.0017294 0
0.632821 0.0483913 0
0.776133 0.0496561 0
0.410387 0.0173393 0
0.939963 0.0044906 0
0.572732 -0.108868 0
0.931932 -0.0943927 0
0.652052 -0.037099 0
0.525379 0.0346914 0
0.141986 -0.00915796 0
-0.0465897 -0.298148 0
-0.198261 -0.0363541 0
-0.202075 0.00101181 0
-0.193881 0.157917 0
-0.153328 0.300339 0
-0.144186 0.296697 0
-0.184847 0.349445 0
-0.209267 0.430832 0
-0.227457 0.517822 0
-0.10824 0.592344 0
-0.197417 0.640729 0
-0.0753589 0.799351 0
-0.0411164 0.626171 0
-0.083337 0.673957 0
-0.055748 0.555008 0
-0.106217 0.558983 0
-0.0740119 0.537051 0
-0.0138181 0.383975 0
-0.0496285 0.353297 0
-0.0467824 0.300323 0
-0.00680972 0.332943 0
-0.0156707 0.171882 0
0.045511 0.166417 0
0.00930148 0.0459013 0
0.0551787 0.097017 0
0.0492408 0.0669685 0
0.0422132 0.207267 0
0.110923 0.253537 0
0.19644 0.254733 0
0.210114 0.259983 0
0.214175 0.249705 0
0.230045 0.395276 0
0.16447 0.539244 0
0.0761261 0.638018 0
-0.00078487 0.565867 0
-0.107954 0.327133 0
-0.0727072 0.57817 0
-0.146683 0.190012 0
-0.184558 0.709894 0
-0.134297 0.459596 0
-0.0656577 0.503777 0
-0.134693 0.355275 0
-0.118528 0.41257 0
-0.154048 0.339036 0
-0.138256 0.172038 0
-0.165084 0.0676387 0
-0.162251 0.090177 0
-0.167946 0.0246554 0
-0.140315 0.00384337 0
-0.15687 0.0475918 0
-0.0981179 0.053823 0
-0.0220904 0.0670818 0
0.0333171 0.0690452 0
-0.0468337 0.0380329 0
-0.0694359 0.249136 0
-0.195495 0.192258 0
-0.150064 0.15385 0
-0.101685 0.144808 0
-0.0951001 0.121121 0
-0.04717 0.0828628 0
-0.0187177 0.149651 0
-0.0226266 0.185557 0
-0.0109564 0.171842 0
0.00856257 0.180009 0
0.00664378 0.156917 0
0.0144918 0.116999 0
0.00930697 0.105477 0
0.000911277 0.0816531 0
-0.0134375 0.09688 0
-0.00200788 0.108157 0
0.00820989 0.0864224 0
0.0167322 0.0651192 0
0.00924684 0.0626078 0
0.00188484 0.049748 0
0.00163281 0.0330332 0
0.0241304 0.024043 0
0.0216601 0.0257223 0
0.0205956 0.0130516 0
0.0234939 0.00414813 0
0.0169256 0.00369404 0
0.0133126 -0.00239364 0
0.00911726 -0.0180592 0
0.00616731 -0.0223094 0
0.00470583 -0.0264886 0
0.00340178 -0.0197924 0
0.00282698 -0.0170839 0
0.000411442 -0.013966 0
-0.00119768 -0.012203 0
0.00114425 -0.00909687 0
-0.00073516 -0.00594888 0
-0.00168843 -0.0230564 0
-0.000242268 -0.0371596 0
-0.0100395 -0.0280017 0
-0.008223 -0.032902 0
-0.00359746 -0.0334927 0
-0.00555502 -0.023097 0
-0.00538026 -0.0171436 0
-0.00333225 -0.00875237 0
-0.00147951 -0.00563396 0
0.00164208 -0.00661353 0
0.000411318 -0.00589789 0
-0.0010408 -0.00628398 0
0.000896772 -0.00733938 0
0.00200534 -0.00600359 0
-0.00199364 -0.00843258 0
-0.000627809 -0.00759884 0
-0.00171784 -0.011876 0
-0.00131466 -0.00914971 0
-0.00215571 -0.0105574 0
-0.000426729 -0.0173158 0
-0.00135324 -0.01893 0
0.000587809 -0.0267476 0
0.000274355 -0.0260512 0
0.000964104 -0.027683 0
0.00118155 -0.0174063 0
0.00288799 -0.0234208 0
-0.00289366 -0.0265822 0
-0.000760533 -0.0251218 0
0.00011514 -0.0256453 0
0.000346644 -0.0218218 0
-0.000296991 -0.0299594 0
0.00100455 -0.0217711 0
-0.00215895 -0.0261084 0
-0.00180047 -0.0266918 0
0 -0.0259128 0
10.0039 0.137874 0
9.74756 -0.071686 0
9.45862 -0.123819 0
9.73001 -0.309703 0
9.05157 -0.135063 0
8.59868 0.0293113 0
8.80984 -0.204088 0
6.97534 -0.133148 0
6.26739 0.108258 0
7.14113 0.546988 0
5.54928 0.269655 0
5.78385 -0.109831 0
4.55959 -0.625553 0
2.26133 -0.439171 0
1.6127 -0.181733 0
1.24841 0.0529117 0
0.291125 -0.661725 0
0.0713952 -0.820487 0
0.173863 -0.692751 0
0.140335 -0.527677 0
0.0307681 -0.475421 0
-0.00855852 -0.509093 0
0.00777694 -0.506117 0
0.0710385 -0.54892 0
0.0677272 -0.384355 0
0.0164196 -0.261965 0
-0.171412 -0.219626 0
-0.303694 -0.349826 0
-0.338192 -0.322014 0
-0.041974 -0.15685 0
-0.570819 -0.406539 0
-0.735737 -0.393438 0
-0.934473 -0.331895 0
-0.756632 -0.121769 0
-0.760375 -0.0741296 0
-0.564559 -0.138562 0
-0.477715 -0.144356 0
-0.24057 -0.0787015 0
-0.152908 -0.131362 0
-0.206528 -0.0909194 0
0.453993 0.00775071 0
1.14809 0.0837747 0
1.00394 -0.0028051 0
0.962883 0.0123605 0
0.998368 -0.00336822 0
0.894733 -0.022211 0
0.934054 -0.00360308 0
0.606333 0.00987894 0
0.484244 0.00342421 0
0.410975 0.0470892 0
0.412461 -0.0768407 0
0.289786 -0.0651434 0
0.252542 -0.00287513 0
0.410888 -0.00338105 0
0.516612 0.0745503 0
0.799494 0.0495223 0
1.0531 -0.0705168 0
1.23595 -0.0695556 0
0.757652 -0.00660496 0
0.442736 0.020497 0
0.570678 0.0152775 0
0.765958 0.120743 0
0.450633 -0.0596834 0
0.469177 -0.0124385 0
0.0396104 0.0580845 0
0.165204 0.0766021 0
0.158438 0.0975068 0
0.227226 0.0649401 0
0.392031 0.0921593 0
0.0791555 0.0111781 0
0.439817 -0.111774 0
0.926113 -0.181912 0
1.14252 -0.380642 0
1.57684 -0.307935 0
1.30315 -0.409147 0
0.967542 -0.386213 0
0.558383 -0.12677 0
0.390888 -0.129138 0
0.109791 -0.0102669 0
0.0219302 -0.0189273 0
0.0649136 0.333338 0
0.0251615 0.591309 0
0.0456091 0.40662 0
0.0225994 0.436661 0
-0.0142407 0.510663 0
-0.109722 0.505287 0
0.0188564 0.595817 0
-0.0173599 0.28204 0
-0.0925534 0.369468 0
-0.114517 0.709735 0
-0.0871995 0.583056 0
-0.0928067 0.548339 0
-0.0389149 0.582407 0
-0.00622864 0.400772 0
0.0377402 0.349251 0
0.0100055 0.288909 0
0.0335118 0.375956 0
0.0759844 0.397965 0
0.0548375 0.237682 0
0.00914247 0.189324 0
0.0627322 0.130732 0
0.0833563 0.0394055 0
0.0787909 0.00950273 0
0.0962175 0.174006 0
0.233814 0.19912 0
0.289596 0.257949 0
0.317028 0.246538 0
0.286383 0.304805 0
0.137862 0.296268 0
0.0490405 0.489447 0
-0.0933927 0.280157 0
-0.128894 0.524061 0
-0.19348 0.521293 0
-0.135851 0.557612 0
-0.244104 0.398782 0
-0.251092 0.467156 0
-0.120551 0.18518 0
-0.27536 0.398118 0
-0.356281 0.308456 0
-0.31046 0.294506 0
-0.382727 0.234857 0
-0.400988 0.104403 0
-0.360724 0.0530551 0
-0.331587 0.00634657 0
-0.291967 0.0147002 0
-0.282937 0.015919 0
-0.199046 0.0541935 0
-0.114697 0.0896331 0
-0.0344634 0.17636 0
-0.0950981 0.167342 0
-0.0267146 0.210832 0
0.009135 0.207742 0
-0.110984 0.193479 0
-0.128533 0.14445 0
-0.0974794 0.104741 0
-0.090462 0.0710047 0
-0.0619955 0.113982 0
-0.0441353 0.124518 0
-0.0304944 0.213612 0
-0.00556681 0.197354 0
-0.0061118 0.202282 0
-0.00104669 0.14601 0
0.0119964 0.142261 0
0.00604745 0.103676 0
0.00558193 0.0867768 0
-0.0140593 0.0990871 0
-0.00586862 0.055985 0
-0.000628306 0.046188 0
-0.000648933 0.0264705 0
-0.00213967 0.0162462 0
-0.00391416 0.0179079 0
0.00544344 0.032623 0
0.00317714 0.0217008 0
0.00623971 0.00457759 0
0.00678262 0.00237597 0
0.00660139 -0.00631677 0
0.00778296 -0.00974783 0
0.00579417 -0.0296629 0
0.0035901 -0.0280021 0
-0.00168364 -0.0289199 0
-0.00168634 -0.0326516 0
-0.00461568 -0.0293078 0
-0.00651272 -0.0281645 0
-0.00709666 -0.00725084 0
-0.00616502 -0.0205457 0
-0.00482848 -0.0115662 0
-0.00193829 -0.00436031 0
0.00536101 -0.0367566 0
0.00258338 -0.0310484 0
-0.00891423 -0.0344432 0
-0.00790371 -0.0343006 0
-0.00794226 -0.023881 0
-0.00570667 -0.0145068 0
-0.00592218 -0.00502346 0
-0.00492571 -0.00177351 0
-0.00201916 -0.00193562 0
-0.000182994 -0.00199124 0
-0.00148929 -0.00247886 0
-0.00167368 -0.00268757 0
-0.00330957 -0.00429 0
-0.00355853 -0.00644492 0
-0.00137374 -0.0061651 0
-0.00174719 -0.00606857 0
-0.00326328 -0.00531157 0
-0.00404823 -0.00576069 0
-0.00271037 -0.00979856 0
-0.00229541 -0.0160244 0
-0.00167076 -0.0184804 0
-0.000894047 -0.0207874 0
-0.000451689 -0.0211175 0
-0.00104458 -0.017652 0
-0.0024276 -0.0209787 0
0.00206821 -0.0187398 0
0.00080991 -0.0227485 0
-0.00182761 -0.017819 0
-0.00244806 -0.0206717 0
-0.00186257 -0.0190705 0
-0.00158573 -0.015072 0
-0.00138427 -0.0167086 0
2.43095e-05 -0.0160545 0
0 -0.0133909 0
10.0039 0.0175978 0
9.50736 -0.200102 0
9.71954 -0.114426 0
9.08091 -0.380821 0
8.79325 -0.134228 0
7.9127 -0.233605 0
7.42353 -0.378632 0
8.32791 0.217395 0
7.9415 -0.273969 0
7.75443 -0.00661021 0
4.55491 0.187168 0
4.38616 -0.197101 0
3.9035 -0.654934 0
1.83494 -0.141408 0
1.95897 0.328207 0
1.71263 0.225917 0
0.901971 -0.254228 0
0.522488 -0.162895 0
0.247806 -0.0884371 0
0.148142 -0.175722 0
0.0414425 -0.169425 0
0.0823213 -0.0999272 0
0.0184588 -0.126852 0
0.00381436 -0.239449 0
-0.0759627 -0.237094 0
-0.177368 -0.20552 0
-0.0713299 -0.252729 0
-0.129032 -0.347153 0
-0.165855 -0.308382 0
-0.115712 -0.208059 0
-0.44582 -0.163925 0
-0.592197 -0.434918 0
-0.701729 -0.255727 0
-0.65638 -0.207792 0
-0.723752 -0.285757 0
-0.652456 -0.280643 0
-0.193611 -0.187328 0
-0.153315 -0.215563 0
-0.112317 -0.152154 0
-0.0877687 -0.0513105 0
0.0714558 -0.0392786 0
0.96011 0.0243834 0
1.29008 -0.0135949 0
1.26077 -0.0377539 0
1.01935 0.0201403 0
1.10151 0.00785273 0
1.2443 -0.0625398 0
1.12652 -0.0595754 0
0.845869 0.00655743 0
0.730108 0.00219722 0
0.695288 -0.0322431 0
1.12344 -0.100165 0
0.868382 -0.0683955 0
1.00572 -0.0130885 0
1.00503 0.0431988 0
1.16547 0.0321085 0
0.931109 -0.10099 0
0.815576 -0.192465 0
0.86168 -0.132857 0
1.0703 0.0888282 0
1.18748 0.106934 0
0.651517 0.106561 0
0.752408 0.0753645 0
0.786622 0.0820855 0
0.762616 0.139868 0
0.763836 0.134087 0
0.600889 0.118778 0
0.531244 0.197042 0
0.69516 0.176586 0
0.44195 0.0684674 0
0.475166 -0.144009 0
0.718358 -0.287773 0
1.11455 -0.360339 0
1.5887 -0.482349 0
1.37152 -0.285438 0
1.86769 -0.353425 0
2.0457 0.0236991 0
1.7175 -0.480423 0
1.41328 -0.318225 0
1.16352 -0.142966 0
1.1214 0.228902 0
0.869938 0.351324 0
0.476636 0.386238 0
0.290011 0.313671 0
0.150031 0.33987 0
0.0450186 0.38305 0
-0.0884124 0.695811 0
-0.172785 0.459689 0
-0.128642 0.544884 0
-0.133526 0.580319 0
-0.074776 0.365414 0
-0.0300055 0.388683 0
-0.020827 0.268149 0
-0.029123 0.280493 0
0.0350509 0.402162 0
0.116945 0.34009 0
0.18472 0.2675 0
0.205691 0.393362 0
0.185089 0.285639 0
0.15661 0.271712 0
0.112928 0.221822 0
0.0992374 0.134035 0
0.11658 0.125218 0
0.156793 0.149745 0
0.133825 0.2119 0
0.237472 0.207126 0
0.30329 0.233152 0
0.155282 0.190882 0
0.0528286 0.223272 0
0.0269649 0.349726 0
-0.0452049 0.325244 0
-0.129218 0.611638 0
-0.243955 0.711322 0
-0.0727906 0.690507 0
-0.0201529 0.312363 0
-0.0957384 0.765109 0
-0.0876071 0.372627 0
-0.02536 0.087375 0
-0.211702 0.148798 0
-0.220457 0.129712 0
-0.371286 0.140187 0
-0.402848 0.104894 0
-0.197636 0.0900659 0
-0.123896 0.0603888 0
-0.17305 0.0381411 0
-0.0840739 0.0777276 0
-0.171834 0.0293716 0
-0.0846444 0.0523512 0
-0.0312653 0.0378266 0
-0.0172853 0.0396495 0
-0.108338 0.0362652 0
-0.106952 0.0155796 0
-0.0306455 0.119884 0
0.0158959 0.138832 0
-0.0156788 0.132916 0
-0.0688177 0.112727 0
-0.125753 0.225035 0
-0.090577 0.0335154 0
-0.0683958 0.0186594 0
-0.0426889 0.0674418 0
-0.0361867 0.0915451 0
-0.0305436 0.22993 0
-0.00903147 0.224121 0
0.0111245 0.186694 0
0.0245387 0.130165 0
-0.0176738 0.117051 0
-0.0342007 0.109256 0
-0.0241283 0.0872049 0
-0.0193294 0.0597707 0
-0.0245373 0.0425717 0
-0.0228058 0.0416808 0
-0.0146366 0.0389409 0
-0.00587713 0.0239188 0