<?xml version="1.0"?>
<VTKFile type="StructuredGrid"  version="0.1" byte_order="LittleEndian" compressor="vtkZLibDataCompressor">
  <StructuredGrid WholeExtent="0 200 0 20 0 0">
    <Piece Extent="0 200 0 20 0 0">
      <PointData Vectors="Velocity">
        <DataArray type="Float32" Name="Velocity" NumberOfComponents="3" format="ascii">
10.0039 0.080313 0
9.52527 0.416813 0
8.14422 -0.0108501 0
8.8106 0.123339 0
7.20056 1.06105 0
4.39884 1.2505 0
7.3255 0.734016 0
5.26221 0.229307 0
5.49271 0.0468623 0
4.50554 0.936248 0
2.57894 -0.724262 0
1.27036 -0.635873 0
0.59156 -1.40454 0
0.169994 -2.21231 0
0.0933409 -1.91698 0
0.026506 -1.80605 0
0.0266924 -2.14743 0
0.183181 -3.58028 0
-0.378612 -4.58441 0
1.37292 -5.25063 0
1.49705 -3.69041 0
3.60136 -2.12234 0
4.8573 -1.55207 0
6.66335 -1.15487 0
7.36873 -0.765476 0
7.31132 -1.12623 0
7.97038 -1.03764 0
7.35405 -1.01841 0
8.00432 -0.275685 0
7.69844 -1.11074 0
7.43313 -0.509012 0
7.68526 -0.315099 0
7.84715 -0.0870221 0
8.03647 -0.133721 0
8.05563 -0.0233544 0
8.10789 -0.0510825 0
8.03029 -0.0211122 0
8.01881 -0.146798 0
7.9958 -0.150962 0
8.00003 -0.148596 0
8.05274 -0.159066 0
8.19953 -0.127676 0
8.57294 -0.0800895 0
8.86615 -0.0524167 0
8.71287 -0.0585454 0
8.83626 -0.044157 0
8.78609 -0.0210327 0
8.92148 -0.00982221 0
9.07742 0.00637329 0
9.05536 -0.00656962 0
8.73219 -0.00634503 0
8.00648 0.0813912 0
7.77798 0.109833 0
7.4427 0.104265 0
7.06233 0.110201 0
7.00674 0.117404 0
6.67501 0.141701 0
6.22984 0.198989 0
5.89439 0.200993 0
5.73063 0.261743 0
5.82751 0.423147 0
5.77523 0.393142 0
5.85228 0.399192 0
5.41649 0.475955 0
5.2531 0.273863 0
5.32251 0.307151 0
5.38418 0.391093 0
5.24805 0.357625 0
5.25104 0.277488 0
5.16753 0.304741 0
4.79687 0.14859 0
4.03704 0.669863 0
4.06674 0.983217 0
3.12021 1.25309 0
3.26658 1.57539 0
2.46644 1.34571 0
2.43988 1.79331 0
1.60709 2.06518 0
0.795542 1.79952 0
0.315828 1.63288 0
0.592126 1.20759 0
0.322647 0.685962 0
0.146955 0.596027 0
-0.210363 0.410811 0
-0.237257 0.404255 0
-0.318013 0.272784 0
-0.262365 0.411268 0
-0.298815 0.336642 0
-0.299019 0.294689 0
-0.480638 0.175082 0
-0.499485 0.0196617 0
-0.683857 0.113188 0
-0.794262 0.0294716 0
-0.712578 0.107288 0
-0.997902 0.276493 0
-1.26846 0.542849 0
-1.4168 0.693679 0
-1.50512 0.297622 0
-0.97743 -0.237064 0
-0.905237 -0.0162674 0
-1.04465 0.43964 0
-0.856886 0.348651 0
-0.487422 0.551126 0
-0.0978876 0.829369 0
0.309996 0.981858 0
0.555345 0.960288 0
0.926104 0.76888 0
1.17637 0.492182 0
1.43878 0.30831 0
1.41258 0.147687 0
1.18197 0.411219 0
0.940911 0.547254 0
0.713009 0.512048 0
0.522668 0.646286 0
0.334873 0.400232 0
0.185785 0.0928819 0
0.0380797 -0.0599637 0
-0.0829329 -0.0872718 0
-0.113662 -0.0961283 0
-0.0681765 -0.0412728 0
-0.0663871 -0.0297454 0
-0.0266375 -0.0118578 0
-0.0487898 -0.0243153 0
-0.0770301 0.00295798 0
-0.0300723 0.100225 0
-0.0163393 0.122261 0
0.029324 0.182073 0
0.00105779 0.14166 0
0.0359328 0.0612938 0
0.000938027 0.207592 0
-0.00392565 0.194809 0
0.023864 0.135982 0
0.00902449 0.114738 0
0.00816805 0.168587 0
-0.00843449 0.19937 0
0.0506424 0.126327 0
0.0276404 0.115933 0
0.0125917 0.0755755 0
0.0211272 0.127602 0
0.0483321 0.0950991 0
0.0234341 0.0773928 0
0.0274034 0.0824175 0
0.0705597 0.0913819 0
0.0561254 0.0896496 0
0.036918 0.056288 0
0.0279637 0.0729401 0
0.0208368 0.0512295 0
0.0321303 0.065833 0
0.0122592 0.0522412 0
0.0023874 0.0707243 0
0.0254311 0.0197624 0
0.0177804 0.0325289 0
0.014093 0.0331883 0
0.0143476 0.0322674 0
0.0183251 0.0243783 0
-0.00185411 0.00163112 0
0.0189037 0.0296084 0
0.017588 0.00304272 0
0.0235179 0.0108412 0
0.0206306 0.0141321 0
0.00565241 0.0162309 0
0.0032264 0.0110813 0
0.0185899 0.0142591 0
0.0119169 0.0100453 0
0.00903311 0.0107151 0
0.0161455 0.0120672 0
0.00776999 0.0138827 0
0.00479707 0.0037823 0
-0.0164272 0.00598669 0
-0.029821 0.008895 0
-0.0358358 0.00843485 0
-0.0523311 0.00787106 0
-0.0802459 0.0131143 0
-0.0786854 0.0181476 0
-0.0688284 0.0153063 0
-0.0645382 0.0176158 0
-0.0756758 0.0442132 0
-0.0736745 0.0428368 0
-0.0769907 0.0374871 0
-0.0871685 0.0365412 0
-0.0900811 0.0386561 0
-0.0772551 0.0669496 0
-0.0607719 0.0798644 0
-0.0561187 0.0928502 0
-0.0599821 0.117185 0
-0.0678808 0.129543 0
-0.0638868 0.144098 0
-0.0599373 0.146078 0
-0.0542738 0.155959 0
-0.0511186 0.160495 0
-0.043722 0.155468 0
-0.041812 0.182881 0
-0.0405639 0.187307 0
-0.0360109 0.193567 0
-0.0291425 0.191724 0
-0.0181565 0.199647 0
-0.0157254 0.186775 0
-0.0082036 0.213406 0
-0.00446001 0.213956 0
-0.000148812 0.213906 0
0 0.210892 0
10.0039 0.110104 0
9.29346 0.142878 0
9.41056 0.345778 0
7.77625 0.193066 0
8.49592 1.12519 0
7.2976 0.185651 0
5.76246 0.664185 0
5.39598 0.714831 0
5.27934 0.27223 0
3.91303 -0.315113 0
2.00424 -0.098434 0
0.557943 -1.00494 0
0.379803 -2.2611 0
0.624235 -1.9774 0
-0.284937 -1.11105 0
-0.329542 -1.09134 0
-0.309435 -2.35999 0
-0.350098 -2.6962 0
0.787014 -2.41801 0
1.97287 -2.53825 0
3.40819 -1.34563 0
3.50453 -0.821367 0
5.28513 -0.790758 0
6.56188 -0.787014 0
6.84025 -1.04341 0
7.71327 -0.693925 0
8.02013 -1.02357 0
8.17124 -0.315513 0
7.736 -0.725619 0
8.24594 -0.664278 0
8.19435 -0.479929 0
8.08879 -0.164663 0
8.06608 -0.0399847 0
7.98567 -0.124235 0
7.98338 -0.0352601 0
8.03306 -0.0466103 0
8.07038 -0.0763109 0
8.09439 -0.108736 0
8.0873 -0.108359 0
8.08708 -0.0911804 0
8.17181 -0.0408101 0
8.33541 -0.000428059 0
8.54497 -0.0156084 0
8.73265 -0.0333643 0
8.8176 -0.0474765 0
8.78079 -0.0584336 0
8.75913 -0.0189988 0
8.91299 -0.0117198 0
9.04541 -0.0130602 0
9.01646 -0.0230741 0
8.91402 -0.0338319 0
8.0387 -0.00770511 0
7.77735 -0.0962936 0
7.39348 0.0899884 0
7.13834 0.0934634 0
7.09043 0.0634958 0
6.76366 0.0751623 0
6.48485 0.126586 0
6.25643 0.146829 0
5.98721 0.145061 0
5.92014 0.329516 0
5.52579 0.357867 0
5.47885 0.446094 0
5.23853 0.433302 0
5.20983 0.357116 0
5.21044 0.378359 0
5.12867 0.192565 0
5.14118 0.256815 0
5.289 0.243166 0
5.24549 0.403483 0
5.10331 0.259933 0
4.77643 0.296554 0
4.34518 0.450534 0
4.1907 0.743406 0
3.63146 0.992517 0
3.26807 0.665654 0
2.39713 1.00558 0
1.50394 1.75874 0
1.36429 1.88818 0
0.780314 1.62786 0
0.335886 1.03138 0
0.127756 0.926871 0
0.026544 0.579067 0
-0.0681947 0.488388 0
-0.199386 0.424776 0
-0.103192 0.447985 0
-0.0918076 0.463831 0
-0.14194 0.51104 0
-0.296883 0.489754 0
-0.516022 0.466255 0
-0.586606 0.393633 0
-0.673684 0.219162 0
-0.777818 0.177514 0
-0.872564 0.362692 0
-0.899979 0.490477 0
-1.07242 0.661676 0
-1.22567 0.801569 0
-1.22256 0.630707 0
-1.20001 0.590162 0
-1.06118 0.613426 0
-0.844742 1.07499 0
-0.877395 1.57164 0
-0.600779 2.15696 0
-0.199392 2.66443 0
0.209327 2.61915 0
0.541398 2.33752 0
0.645714 1.89364 0
0.940889 1.34925 0
0.83888 1.0075 0
0.934078 0.560771 0
0.878329 0.481855 0
0.869743 0.188483 0
0.720159 0.20575 0
0.618313 0.259491 0
0.230833 0.16447 0
-0.046495 -0.144737 0
-0.108064 -0.22358 0
-0.140912 -0.197044 0
-0.103168 -0.134443 0
-0.107933 -0.0757761 0
-0.0763783 -0.0520439 0
-0.0729074 -0.0638151 0
-0.0204433 0.0603866 0
-0.0302203 0.0687799 0
-0.0376762 0.0923028 0
-0.00713166 0.147407 0
-0.0050408 0.136216 0
0.00808803 0.134349 0
0.0176835 0.142002 0
0.0109697 0.079965 0
0.0295484 0.174322 0
0.0282192 0.123158 0
0.0127136 0.153258 0
0.0115492 0.0616365 0
0.0188468 0.187481 0
0.0145681 0.164203 0
-0.00221144 0.128036 0
0.0424854 0.0939089 0
0.0229041 0.119923 0
0.0182911 0.0913224 0
0.021974 0.0762955 0
0.029943 0.120489 0
0.0572744 0.11583 0
0.0382031 0.0770916 0
0.0326389 0.0546287 0
0.0355059 0.0665518 0
0.0285517 0.0303781 0
0.0156148 0.0298822 0
0.016899 0.00840631 0
0.015187 0.0386662 0
0.00901792 0.019883 0
0.0138205 0.0282466 0
0.00388512 0.0175287 0
0.0038697 0.0446061 0
0.0103667 0.0078531 0
0.0266179 0.037313 0
0.00468046 0.0230662 0
0.0255314 0.0045494 0
0.0206596 0.0227783 0
0.0152618 0.00898371 0
0.0135194 0.0200395 0
0.0107912 0.00452482 0
0.00946737 0.0116689 0
0.00153893 0.0157375 0
0.00518609 0.0108629 0
0.00460176 0.00782505 0
0.00496159 0.0106905 0
-0.00442545 0.00524152 0
-0.0226484 0.00300315 0
-0.0321279 0.00133798 0
-0.0504315 0.00555604 0
-0.0586852 0.0071552 0
-0.0618815 0.0125346 0
-0.0626564 0.00888481 0
-0.0722449 0.0122872 0
-0.0642553 0.0194958 0
-0.0670088 0.0222174 0
-0.071834 0.0266349 0
-0.075343 0.0353194 0
-0.0657415 0.0409661 0
-0.0663649 0.0563947 0
-0.067655 0.0639693 0
-0.0591961 0.0740639 0
-0.0602619 0.0920098 0
-0.057112 0.109473 0
-0.0499291 0.128985 0
-0.0469309 0.13745 0
-0.0470442 0.146077 0
-0.0452681 0.144596 0
-0.0436741 0.153766 0
-0.0403174 0.155677 0
-0.0372067 0.169452 0
-0.0322411 0.177449 0
-0.0278346 0.184153 0
-0.0218 0.190754 0
-0.0154974 0.183544 0
-0.00794133 0.190521 0
-0.00802256 0.201278 0
-0.00785846 0.203392 0
-0.00557696 0.201577 0
0 0.200992 0
10.0039 0.00750895 0
8.39961 0.093545 0
8.99238 -0.0109493 0
6.31521 0.412246 0
8.87846 0.258551 0
6.48524 0.102458 0
7.07481 0.927624 0
5.85936 0.683064 0
4.58246 0.341371 0
3.64203 -0.447888 0
2.11513 -0.599682 0
0.74079 -0.694586 0
0.237782 -0.934331 0
-0.13907 -2.23725 0
-0.28312 -2.15591 0
0.37195 -2.17487 0
0.899676 -1.80387 0
1.43812 -1.14224 0
1.78168 -0.526932 0
2.3609 -0.0715835 0
2.72211 -0.860489 0
2.92147 -1.18465 0
4.19609 -0.871704 0
5.17054 -0.91487 0
5.55719 -1.34251 0
7.62775 -1.05755 0
8.08459 -0.964932 0
7.88209 -0.507565 0
7.8942 -0.566706 0
8.08101 -0.82373 0
8.06355 -0.50434 0
7.96922 -0.108655 0
7.96782 0.0172221 0
7.99465 -0.0840798 0
8.16456 -0.0426554 0
8.22159 -0.0401097 0
8.28055 -0.0194533 0
8.18543 -0.0200036 0
8.18586 -0.0169046 0
8.13683 -0.0215044 0
8.17843 -0.0137727 0
8.30399 -0.0364671 0
8.41537 -0.0646679 0
8.52361 -0.0409668 0
8.61029 -0.0236333 0
8.51697 -0.0591992 0
8.72968 -0.0307821 0
9.04888 -0.026347 0
9.02477 -0.0218144 0
8.94871 -0.0267148 0
8.7277 -0.0312861 0
8.22769 -0.0816464 0
7.86566 -0.0544428 0
7.30221 0.0204724 0
6.81306 0.0748599 0
6.8407 0.0660028 0
6.85114 0.0334783 0
6.58818 0.0801505 0
6.44906 0.0986877 0
5.95874 0.19206 0
5.76992 0.205947 0
5.80255 0.280459 0
5.52697 0.248601 0
5.40735 0.254869 0
5.3316 0.329037 0
5.33145 0.349199 0
5.21087 0.369804 0
5.17542 0.517955 0
5.09493 0.459014 0
4.93173 0.182373 0
4.98509 0.261408 0
4.96274 0.0216356 0
4.84886 0.163633 0
4.34714 0.313126 0
4.06355 0.775312 0
3.55158 0.385274 0
3.13067 0.761579 0
2.93047 0.859228 0
1.52519 1.65273 0
0.73856 1.76973 0
0.27089 1.69031 0
-0.206111 1.2202 0
-0.21507 0.983201 0
-0.1532 0.720733 0
-0.0985858 0.662863 0
-0.182702 0.654069 0
-0.153208 0.671598 0
-0.285896 0.691178 0
-0.450238 0.588085 0
-0.582386 0.493625 0
-0.531972 0.379789 0
-0.556237 0.282167 0
-0.725684 0.420983 0
-0.750228 0.386863 0
-0.973746 0.600215 0
-0.978349 0.527809 0
-0.9879 0.265087 0
-1.31435 0.546406 0
-1.21381 0.980917 0
-1.04321 1.49644 0
-0.94056 2.20026 0
-0.668967 2.73545 0
-0.0385402 2.63583 0
-0.00848051 2.14259 0
0.0936153 1.47905 0
-0.123864 1.20518 0
-0.0796207 1.63594 0
0.181778 1.44443 0
0.17612 1.47164 0
0.266232 0.977916 0
0.155789 0.534877 0
0.386835 0.288141 0
0.63813 -0.0510797 0
0.454723 -0.177223 0
0.0218322 -0.295055 0
-0.275247 -0.29617 0
-0.247549 -0.146583 0
-0.14204 -0.0642629 0
-0.155867 -0.0888615 0
-0.135098 -0.151072 0
-0.121675 -0.0956273 0
-0.0953618 -0.0155551 0
-0.0613487 -0.0531417 0
-0.0329634 0.0297297 0
-0.0274189 0.0950458 0
-0.0194322 0.0804591 0
-0.0041735 0.198917 0
-0.00435941 0.159337 0
-0.011014 0.182996 0
0.0185272 0.178241 0
0.0152886 0.189779 0
0.00286537 0.138685 0
0.0204061 0.175063 0
0.0143652 0.19414 0
0.00976983 0.180783 0
0.00679113 0.155002 0
0.0231368 0.117956 0
0.01899 0.155893 0
0.0132953 0.134729 0
-0.00400562 0.114399 0
-0.00115523 0.103862 0
0.0408837 0.0895517 0
0.0224118 0.0922367 0
0.00522844 0.0810394 0
0.0116346 0.0641151 0
0.0123086 0.0561856 0
0.00885379 0.0552012 0
0.00591251 0.0392051 0
0.00635781 0.0486298 0
0.00355259 0.0515632 0
0.00658073 0.0389112 0
0.000462382 0.02914 0
0.00518361 0.0251011 0
0.00601659 0.00955324 0
0.00780754 0.0082623 0
0.00828602 0.00532611 0
0.00924153 0.0152289 0
0.00831209 -0.00187174 0
0.00590591 0.00717617 0
0.00498778 0.00256229 0
0.00705842 0.0166869 0
0.0064521 0.0185965 0
0.00306765 0.0130865 0
0.0104552 0.00835397 0
0.0128541 0.00432753 0
0.00554997 0.00346191 0
-0.00204844 0.0022523 0
-0.0129514 0.0026699 0
-0.0409185 -0.00332805 0
-0.0454369 -0.00480315 0
-0.0462523 -0.00280394 0
-0.0501555 -0.00369133 0
-0.054835 -0.00710462 0
-0.066421 -0.00107634 0
-0.0634734 0.00416487 0
-0.0673058 0.00676687 0
-0.0659968 0.014671 0
-0.0649023 0.0187988 0
-0.0643261 0.0287029 0
-0.0598995 0.0442399 0
-0.0581148 0.0565019 0
-0.0595884 0.0654293 0
-0.0553918 0.0741062 0
-0.0515542 0.0821418 0
-0.0480195 0.0881627 0
-0.038061 0.108464 0
-0.0350772 0.121688 0
-0.0377413 0.125057 0
-0.0336862 0.138072 0
-0.0346916 0.152819 0
-0.0336834 0.156458 0
-0.0304782 0.161829 0
-0.0228869 0.16497 0
-0.016073 0.177283 0
-0.0148025 0.17937 0
-0.0175314 0.175334 0
-0.0128598 0.173037 0
-0.00860632 0.187033 0
-0.00613458 0.187631 0
-0.00305844 0.185717 0
0 0.189354 0
10.0039 -0.264989 0
9.0834 -0.360761 0
9.2901 0.0437949 0
8.34101 0.0513002 0
8.50323 -0.259911 0
6.50593 -0.200967 0
7.42913 0.297891 0
6.04863 0.321134 0
3.15816 -0.357671 0
2.83646 -0.275925 0
2.15135 -0.481446 0
0.837766 0.0411292 0
0.0678427 -0.585561 0
0.427285 -1.23219 0
1.10429 -0.947575 0
1.33324 -0.643619 0
1.38017 -0.405748 0
1.61896 -0.214717 0
1.69612 0.23547 0
1.54071 0.272585 0
1.92056 -0.53147 0
1.88818 -1.19338 0
3.00486 -1.492 0
3.41736 -1.36982 0
4.93154 -1.32406 0
6.67498 -0.867429 0
7.93676 -0.517791 0
8.28928 -0.597643 0
7.69837 -0.395644 0
7.74389 -0.62413 0
7.88717 -0.205155 0
7.95977 -0.0956538 0
8.0567 -0.0287422 0
8.16982 -0.0927239 0
8.30978 -0.0598122 0
8.43723 -0.0458377 0
8.29035 -0.0186949 0
8.31138 -0.00467014 0
8.0548 -0.0290913 0
8.16753 -0.057493 0
8.13758 -0.0252041 0
8.33895 -0.00602016 0
8.4818 -0.0369107 0
8.65169 -0.0399499 0
8.92702 0.0226014 0
9.06337 0.00372746 0
9.09981 -0.0157268 0
9.19458 -0.0225172 0
9.23624 -0.100695 0
9.23651 -0.0394471 0
9.0675 -0.0353764 0
8.79956 -0.0687079 0
8.35497 -0.0246495 0
8.16091 -0.085518 0
8.10202 -0.0751579 0
7.3989 -0.0805817 0
7.21056 -0.0837707 0
6.939 0.0415451 0
6.8063 -0.0561635 0
6.71448 0.10099 0
6.78342 0.0404039 0
6.63949 0.0650228 0
6.62456 0.184089 0
6.45958 0.0675098 0
6.38423 0.175311 0
6.18328 0.193514 0
6.01353 0.342637 0
5.9133 0.316317 0
5.90748 0.290614 0
5.96047 0.0728621 0
6.09086 0.0341114 0
5.97227 -0.0245625 0
5.83016 -0.0278638 0
5.87398 0.21683 0
5.69712 -0.207165 0
5.24975 -0.00625327 0
4.53731 0.743536 0
3.44521 1.00659 0
2.37242 1.19312 0
1.31842 1.14934 0
0.0667998 1.0833 0
-0.0638926 1.03495 0
-0.0500895 0.91567 0
-0.0689834 0.792077 0
-0.0848567 0.615514 0
0.0518916 0.441598 0
-0.356214 0.383226 0
-0.503737 0.350988 0
-0.420582 0.454798 0
-0.541816 0.23766 0
-0.458177 0.227608 0
-0.5799 0.168548 0
-0.584954 0.0899242 0
-0.491543 0.219502 0
-0.684623 0.306211 0
-0.855138 0.333339 0
-0.965232 0.205522 0
-0.92558 0.457709 0
-0.995546 0.919006 0
-1.38311 1.56479 0
-1.16759 1.90023 0
-0.297024 2.12461 0
-0.244649 1.86068 0
-0.0445447 2.49823 0
0.10897 2.06494 0
0.227879 2.07306 0
0.160231 1.75962 0
-0.0131884 1.15413 0
0.0486172 1.34969 0
-0.0743981 0.955801 0
0.116342 0.61521 0
-0.149837 0.342391 0
-0.143052 0.134775 0
-0.115701 -0.378647 0
-0.1265 -0.503596 0
-0.411289 -0.584063 0
-0.413601 -0.266453 0
-0.280877 -0.213746 0
-0.244694 -0.0606611 0
-0.260105 -0.0769306 0
-0.246947 -0.126521 0
-0.185778 -0.0565023 0
-0.137956 -0.0248974 0
-0.108092 -0.0180622 0
-0.0534023 0.0645391 0
-0.0441725 0.157265 0
-0.0325695 0.157092 0
-0.0266818 0.123884 0
-0.019868 0.115558 0
-0.00304458 0.15814 0
-0.00160835 0.157499 0
0.00432036 0.163443 0
0.0106622 0.135438 0
0.0240934 0.141128 0
0.00710789 0.151236 0
-0.000895588 0.145864 0
0.00893327 0.125507 0
0.0118995 0.115518 0
0.00654576 0.0951044 0
0.0142646 0.0827973 0
0.0158569 0.0942149 0
0.0111481 0.132138 0
0.00511345 0.106539 0
0.000269331 0.105152 0
0.00190443 0.0714507 0
0.00476043 0.035451 0
0.00179357 0.0209977 0
0.00438181 0.00968708 0
0.00624969 0.00886002 0
0.00592259 0.0134331 0
-0.00392801 0.0195819 0
0.00548556 0.00499003 0
0.002715 0.00612403 0
-0.00550916 0.0247005 0
-0.00228836 0.0226102 0
-0.00201331 0.0262462 0
0.000818273 0.026937 0
-0.000439943 0.0252141 0
-0.00216356 0.0188805 0
-0.00100714 0.0163491 0
0.00106372 0.0112802 0
0.0017599 0.00750355 0
0.00503854 0.00452882 0
0.00409985 0.00380189 0
0.0120501 0.00351246 0
0.00156677 -0.000896851 0
-0.00752123 -0.0016325 0
-0.0337912 0.00196071 0
-0.040032 -0.00524092 0
-0.0396983 -0.0031142 0
-0.0365045 -0.0107612 0
-0.0333101 -0.00914711 0
-0.044449 -0.000566523 0
-0.042273 -0.00336098 0
-0.0563254 0.00121066 0
-0.0582159 0.00474503 0
-0.0505584 0.0068271 0
-0.0522854 0.0178015 0
-0.0541377 0.0208538 0
-0.0496899 0.0372405 0
-0.0454425 0.0576085 0
-0.0458886 0.0686045 0
-0.0501984 0.0750648 0
-0.0454448 0.0873603 0
-0.0430375 0.0843822 0
-0.0390989 0.108364 0
-0.0304511 0.118061 0
-0.0326352 0.121407 0
-0.0327391 0.137885 0
-0.0298223 0.151149 0
-0.0253146 0.158645 0
-0.0228521 0.162295 0
-0.0176245 0.152063 0
-0.0124358 0.172726 0
-0.012524 0.179787 0
-0.0103359 0.180712 0
-0.0100889 0.181068 0
-0.0110796 0.186886 0
-0.00810271 0.190848 0
-0.0039533 0.183099 0
0 0.186025 0
10.0039 -0.19656 0
9.40714 -0.308506 0
8.42671 -0.0510478 0
7.17204 0.0171177 0
6.57837 0.139185 0
7.56208 -0.0096491 0
7.51266 0.0436863 0
6.19225 -0.684818 0
3.12619 -0.0824256 0
2.55438 0.257787 0
3.30108 0.227742 0
1.71027 -0.235329 0
1.36997 -0.82024 0
1.10381 -0.541401 0
0.923909 -0.332817 0
0.868372 -0.126243 0
0.773308 -0.0303298 0
0.85362 0.261707 0
1.05231 0.284209 0
1.44539 0.173339 0
1.33906 -0.537262 0
1.0235 -1.05807 0
1.4392 -1.25071 0
2.28666 -1.29535 0
4.0775 -0.914026 0
5.72896 -0.577162 0
7.59164 -0.498491 0
7.82731 -0.356384 0
8.43893 -0.360978 0
8.35822 -0.280631 0
8.68362 0.0532039 0
8.75537 -0.0936402 0
8.56698 -0.082987 0
8.57416 -0.110151 0
8.53108 -0.09239 0
8.50839 -0.0468623 0
8.3773 -0.0356958 0
8.35557 -0.0218483 0
8.48532 -0.0374804 0
8.32912 -0.0412365 0
8.2331 -0.0284187 0
8.59075 0.019495 0
8.85017 -0.0370262 0
8.71775 -0.0187189 0
8.70463 0.0209136 0
8.96198 0.0165039 0
9.01617 -0.0723603 0
9.20562 -0.101648 0
9.42297 -0.00975278 0
9.33962 0.00277669 0
9.06852 -0.0507091 0
8.55984 -0.0393192 0
8.62043 -0.0751974 0
8.3738 -0.0991074 0
8.01271 -0.11301 0
7.48822 -0.10152 0
7.22803 -0.114593 0
7.0386 -0.0450542 0
7.00535 0.0324028 0
6.81384 -0.0212442 0
6.95664 -0.0245691 0
6.71861 0.0540143 0
6.59491 0.070221 0
6.52865 0.0547855 0
6.46979 0.0926172 0
6.46745 0.175707 0
6.38872 0.195563 0
6.39206 0.150499 0
6.33063 0.132235 0
6.32118 -0.0101712 0
6.46027 -0.119664 0
6.46975 -0.0748421 0
6.52678 0.0530145 0
6.48151 0.351203 0
6.10786 0.00304316 0
5.79997 0.206057 0
5.89089 0.0798282 0
5.07497 0.321965 0
3.7541 0.100807 0
3.07728 0.179642 0
1.97276 0.47077 0
0.861144 0.859046 0
0.796308 0.670866 0
0.130055 0.932302 0
-0.126119 0.925478 0
-0.176205 0.583932 0
-0.081232 0.437822 0
-0.154586 0.440526 0
-0.178862 0.435727 0
-0.405895 0.223044 0
-0.460001 0.220814 0
-0.581962 -0.0318319 0
-0.648566 0.102636 0
-0.555805 0.00773255 0
-0.58157 0.217184 0
-0.528422 0.22522 0
-0.556877 0.084562 0
-0.772349 0.537669 0
-0.973351 0.884919 0
-0.639162 0.667664 0
-0.810949 1.4061 0
-0.830271 2.3552 0
-0.227116 2.56499 0
-0.0722447 3.66082 0
0.191677 1.0371 0
0.339711 1.1763 0
-0.197101 0.428476 0
0.0294845 0.908976 0
-0.211183 1.06296 0
-0.548005 0.847367 0
-1.30663 0.112775 0
-1.24542 0.531011 0
-1.34697 0.267193 0
-1.41355 0.0782371 0
-1.54787 -0.675557 0
-1.45541 -0.863544 0
-1.03849 -0.614695 0
-0.742305 -0.43462 0
-0.614494 -0.259163 0
-0.475786 -0.139462 0
-0.440143 -0.018635 0
-0.331617 -0.0129838 0
-0.274369 -0.0449919 0
-0.205076 0.0103566 0
-0.158921 -0.0104537 0
-0.109696 0.0896142 0
-0.0995807 0.0979147 0
-0.094439 0.0755367 0
-0.0777727 0.111143 0
-0.0589013 0.187007 0
-0.0372606 0.201913 0
-0.00632629 0.189548 0
0.0097347 0.220217 0
0.0143857 0.227615 0
0.00387222 0.220222 0
-0.000932239 0.21837 0
-0.00411183 0.209041 0
-0.00724147 0.202032 0
0.00138512 0.194465 0
0.00173497 0.180442 0
0.00275105 0.166861 0
0.00252389 0.153849 0
0.0053767 0.133969 0
-0.00175828 0.116282 0
0.00482435 0.101665 0
-0.00202859 0.0803265 0
0.00113151 0.0699466 0
0.00395417 0.0586433 0
-0.000605971 0.0417698 0
-0.00371215 0.0349079 0
-0.000580761 0.0384638 0
-0.001203 0.0361878 0
0.00564036 0.0281818 0
0.00111828 0.0275274 0
-0.0178445 0.0226194 0
-0.0195366 0.0182609 0
-0.0142597 0.0147352 0
-0.0128239 0.0103022 0
-0.00384582 0.00682579 0
0.00343837 0.00488904 0
0.00214866 0.0026991 0
0.00199362 0.00151389 0
0.00557321 0.000878081 0
0.00505741 0.00171446 0
-0.00098013 -0.00172573 0
-0.0253361 -0.00180411 0
-0.0252589 -0.00130623 0
-0.0268458 0.00366197 0
-0.0251901 -5.9502e-05 0
-0.0219812 0.00500563 0
-0.018623 0.00400763 0
-0.019124 0.00216669 0
-0.0277083 0.0096119 0
-0.0389095 0.0116831 0
-0.042867 0.011468 0
-0.0475341 3.69972e-05 0
-0.0421553 0.0128479 0
-0.0390529 0.0249882 0
-0.0427393 0.0313418 0
-0.0406676 0.0396285 0
-0.0342482 0.0581452 0
-0.0374403 0.0707965 0
-0.0401612 0.0785937 0
-0.0361916 0.0938752 0
-0.0367826 0.0910519 0
-0.0355592 0.106884 0
-0.0324636 0.124724 0
-0.0253467 0.131977 0
-0.0254186 0.140283 0
-0.0206556 0.1491 0
-0.0205018 0.16205 0
-0.0132935 0.171296 0
-0.0150943 0.175237 0
-0.0154917 0.194369 0
-0.0086501 0.190547 0
-0.00856528 0.197031 0
-0.0115292 0.195657 0
-0.00853292 0.191147 0
-0.00593694 0.200121 0
-0.00272869 0.199953 0
0 0.2128 0
10.0039 -0.297415 0
9.92484 -0.146346 0
8.89372 -0.36057 0
8.24305 -0.442189 0
8.56446 -0.0969804 0
6.52884 -0.283383 0
5.73873 -0.27534 0
6.03298 -0.954253 0
3.8432 0.690645 0
6.00932 0.605007 0
3.91269 0.343243 0
1.92419 -0.655728 0
1.23714 -0.645061 0
0.889655 -0.300231 0
0.739891 -0.153098 0
0.663158 -0.0886682 0
0.829972 0.0374808 0
0.76729 0.293173 0
0.91647 0.326308 0
0.791171 0.349881 0
0.745741 -0.41285 0
0.660218 -0.939106 0
0.691358 -0.947567 0
1.24025 -0.895465 0
3.10033 -0.669084 0
4.78689 -0.447244 0
6.22468 -0.221169 0
7.33128 -0.175579 0
7.86237 -0.0905745 0
8.37849 -0.0856357 0
8.60054 -0.243093 0
8.71794 -0.25928 0
8.65868 -0.142038 0
8.59484 -0.105627 0
8.56 -0.0805661 0
8.6119 -0.0581218 0
8.4935 -0.0708651 0
8.44124 -0.0525542 0
8.50311 -0.0223961 0
8.47439 0.0351021 0
8.44646 0.0176604 0
8.74573 -0.00481684 0
8.97949 -0.0667725 0
8.98956 -0.0443898 0
9.01076 -0.0824118 0
9.01999 -0.0723677 0
9.1527 -0.0865456 0
9.23955 -0.0556332 0
9.35545 -0.0480575 0
9.32356 -0.0193044 0
9.42064 -0.00224353 0
8.89964 -0.0150994 0
8.71747 -0.0373105 0
8.40467 -0.058797 0
8.17607 -0.062218 0
7.37101 -0.103068 0
7.27277 -0.10828 0
6.96551 -0.137672 0
6.93067 -0.0727936 0
6.96058 -0.193759 0
6.64869 -0.0189009 0
6.80907 -0.00897741 0
6.92886 -0.0182355 0
6.76206 -0.0204696 0
6.58831 0.104869 0
6.49487 0.0497154 0
6.52114 0.142651 0
6.57189 0.136488 0
6.57506 -0.0317471 0
6.7407 -0.0968097 0
6.78282 -0.235862 0
6.76756 -0.0650038 0
6.89983 -0.0648418 0
7.11353 0.198221 0
6.67334 -0.32852 0
6.36003 0.0971758 0
5.41178 0.0306635 0
4.50827 -0.196688 0
4.62573 -0.272514 0
3.78405 -0.347698 0
3.4721 0.233241 0
2.60748 0.32974 0
2.07649 0.41202 0
1.28812 0.728799 0
0.915758 0.790545 0
0.266383 0.421416 0
-0.0709691 0.387039 0
-0.333586 0.320506 0
-0.321719 0.116865 0
-0.476206 0.0917718 0
-0.487205 0.0373412 0
-0.365482 0.0205229 0
-0.136764 -0.105689 0
-0.162271 -0.0716097 0
-0.237059 0.0707197 0
-0.520412 0.0679073 0
-0.556693 0.0565353 0
-0.713059 0.307238 0
-0.0602167 0.914531 0
-0.318853 0.999982 0
-0.57076 1.74189 0
-0.709546 2.32347 0
0.400478 1.93631 0
-0.0874397 0.629544 0
-0.141071 1.99625 0
0.0514498 0.60476 0
-0.176929 1.29135 0
-0.214457 0.469313 0
-0.8563 -0.311662 0
-1.65584 -0.25814 0
-2.63687 -0.65792 0
-2.99274 0.109216 0
-2.55332 0.343104 0
-2.60546 0.0991122 0
-2.60978 0.360261 0
-2.30641 0.0761599 0
-1.83576 -0.269806 0
-1.32002 -0.573537 0
-1.06575 -0.331199 0
-0.898293 -0.144622 0
-0.747178 -0.0869168 0
-0.613527 0.0136363 0
-0.541376 -0.0122973 0
-0.385996 0.00503641 0
-0.264252 0.128145 0
-0.243074 0.208983 0
-0.223965 0.231002 0
-0.185861 0.231292 0
-0.145203 0.239215 0
-0.102878 0.220483 0
-0.0683568 0.24035 0
-0.0414684 0.236654 0
-0.0192358 0.231619 0
-0.0103843 0.1849 0
-0.00562862 0.171841 0
-0.0077128 0.170919 0
-0.0157174 0.153257 0
-0.00788474 0.136159 0
-0.0166058 0.119052 0
-0.0108594 0.105914 0
-0.00775959 0.102528 0
-0.00595471 0.0909338 0
-0.00624806 0.0682835 0
-0.00433623 0.0559042 0
-0.000929894 0.0488128 0
-0.00555656 0.0373681 0
-0.0072228 0.0298424 0
-0.00672407 0.0157684 0
-0.0103615 0.00657646 0
-0.0110092 0.0100435 0
-0.0200851 0.00566561 0
-0.015797 0.00518244 0
-0.0237591 0.00152157 0
-0.0198968 0.0018968 0
-0.0168677 0.0026346 0
-0.0161435 0.00451261 0
-0.0112664 0.00356021 0
-0.0095577 0.00363441 0
-0.0138033 0.00440172 0
-0.00921223 0.00362836 0
-0.00543056 0.00232551 0
-0.00921358 7.78722e-05 0
-0.00726221 -0.00170882 0
-0.00591217 -0.0010215 0
-0.00120426 -0.00171898 0
-0.0138676 -0.000113226 0
-0.0148745 0.002526 0
-0.0194051 0.00329186 0
-0.015553 0.00643875 0
-0.0183043 0.00501565 0
-0.0134157 0.00446826 0
-0.0114456 0.0138607 0
-0.00918224 0.0141635 0
-0.0167137 0.0155699 0
-0.0261187 0.0286294 0
-0.0284461 0.0132238 0
-0.0330036 0.0278174 0
-0.0343626 0.0417686 0
-0.0309145 0.0511741 0
-0.0334381 0.0575324 0
-0.0292961 0.0682653 0
-0.0331918 0.081956 0
-0.0307149 0.0884989 0
-0.0295066 0.110937 0
-0.0327006 0.107902 0
-0.0330312 0.119513 0
-0.0295033 0.128486 0
-0.0240044 0.146288 0
-0.0194014 0.149645 0
-0.0181991 0.15767 0
-0.0131862 0.178377 0
-0.0134819 0.19376 0
-0.0113832 0.187782 0
-0.0133378 0.202148 0
-0.0117865 0.196653 0
-0.00857758 0.208933 0
-0.00548244 0.206177 0
-0.00786447 0.201613 0
-0.00275141 0.2132 0
-3.92903e-05 0.215023 0
0 0.209811 0
10.0039 -0.154376 0
9.4403 -0.228645 0
8.74353 -0.147578 0
8.03185 -0.207172 0
7.92111 -0.771079 0
6.61882 -0.503933 0
6.03327 -0.448788 0
6.37666 -0.439416 0
5.94417 1.16798 0
6.55699 0.547171 0
3.52834 -0.468912 0
1.53371 -0.418157 0
0.738313 -0.319282 0
0.364481 -0.219655 0
0.262858 -0.0187704 0
0.43551 0.188792 0
0.462225 0.144921 0
0.66394 0.103391 0
0.587722 0.0679858 0
0.556176 0.105719 0
0.488653 -0.20941 0
0.484279 -0.703437 0
0.4106 -0.659332 0
0.480924 -0.59241 0
1.811 -0.589956 0
3.45245 -0.372591 0
5.31276 -0.307743 0
6.7 -0.142155 0
7.6456 -0.135258 0
8.02834 -0.0209626 0
8.39015 0.0413919 0
8.5161 -0.039885 0
8.6087 -0.0437416 0
8.52851 -0.0578846 0
8.53354 -0.0882672 0
8.59334 -0.0768627 0
8.59451 -0.0808435 0
8.57606 -0.0467182 0
8.63785 -0.0157786 0
8.50332 -0.0224157 0
8.6593 0.0183062 0
8.68231 -0.0112158 0
8.72951 -0.0346732 0
8.7633 -0.0536247 0
8.62726 -0.14293 0
8.78037 -0.104305 0
9.02636 -0.0178155 0
9.31194 -0.0389537 0
9.22131 -0.0437872 0
9.60007 0.0435841 0
9.36358 0.0476122 0
8.78081 -0.0815998 0
8.68589 -0.0659812 0
8.41226 -0.0624691 0
8.11609 -0.0919374 0
7.72746 -0.0697067 0
7.61315 -0.135203 0
7.23033 -0.0539228 0
7.39766 -0.170336 0
7.14144 -0.169909 0
7.03836 -0.197927 0
6.98363 -0.123798 0
6.86006 -0.0404199 0
6.87049 -0.0169318 0
6.77907 -0.0169124 0
6.85077 0.0449515 0
6.82197 0.0419099 0
6.72456 0.00704173 0
6.7508 -0.02047 0
6.7515 -0.0919541 0
6.67448 -0.0594302 0
6.74881 -0.188858 0
7.01421 -0.0077702 0
7.41918 0.0419647 0
7.81975 -0.0159313 0
7.25222 0.0457257 0
6.90173 -0.620822 0
5.69965 -0.982792 0
5.33931 -0.756174 0
4.92003 -0.663861 0
4.84148 -0.201688 0
3.67026 0.0560045 0
3.17911 0.126551 0
2.28347 0.600238 0
1.89914 0.361492 0
1.39045 0.117805 0
0.760108 -0.0625791 0
0.311 0.00773456 0
0.211538 -0.0954325 0
0.144764 -0.120727 0
-0.406218 -0.141104 0
-0.156591 -0.0200608 0
-0.371179 -0.0890112 0
-0.133637 -0.203638 0
-0.11022 -0.191873 0
-0.236254 0.200803 0
-0.196754 0.284917 0
0.170993 0.327362 0
-0.0629515 0.880788 0
-0.177219 0.631688 0
-0.321104 1.3916 0
0.292425 3.38498 0
-0.0479749 2.06367 0
-0.0565212 0.935271 0
-0.496084 2.50241 0
-0.986105 1.75642 0
-1.26433 1.24827 0
-1.96159 -0.373979 0
-2.05478 -0.514121 0
-1.36653 -0.784421 0
-0.887301 -0.312774 0
-1.0313 0.188864 0
-0.950782 0.0179507 0
-0.692926 -0.188994 0
0.342382 -0.337906 0
-1.25539 -0.118763 0
-2.10656 -0.323375 0
-1.34299 -0.249052 0
-0.914872 -0.477868 0
-0.584595 -0.224493 0
-0.483757 -0.100156 0
-0.943219 0.0897352 0
-0.823296 0.0894496 0
-0.635385 0.0766124 0
-0.49864 0.128839 0
-0.434516 0.207901 0
-0.359003 0.250665 0
-0.288772 0.248165 0
-0.23303 0.261402 0
-0.16127 0.277564 0
-0.110122 0.170041 0
-0.0999409 0.162391 0
-0.0745418 0.211029 0
-0.0489133 0.195947 0
-0.0333159 0.197229 0
-0.0270737 0.148014 0
-0.0351536 0.119669 0
-0.034748 0.0847601 0
-0.0369535 0.0596484 0
-0.0287035 0.0310715 0
-0.0239628 0.0315811 0
-0.0190283 0.0359183 0
-0.0124277 0.0513698 0
-0.00370188 0.0415199 0
-0.00264965 0.0198942 0
-0.00644313 0.0110184 0
-0.00981156 -0.00177903 0
-0.0107827 -0.0183702 0
-0.013087 0.00594917 0
-0.0117701 0.00691255 0
-0.0147201 -0.00131971 0
-0.0171223 -0.0167198 0
-0.0246642 -0.0173276 0
-0.0263229 -0.0133801 0
-0.0238867 -0.00736054 0
-0.0157186 -0.00199558 0
-0.0136259 0.000346658 0
-0.009903 0.00427861 0
-0.00708037 0.0035354 0
-0.00398098 0.00106589 0
-0.00175198 -0.00119022 0
-0.00102314 -0.00123756 0
-0.00226595 -0.00315111 0
-0.00455729 -0.00318246 0
-0.00387834 -0.00327122 0
-0.0127197 -0.00184357 0
-0.0148325 -0.00157477 0
-0.0153675 -0.000909605 0
-0.0140432 0.000756736 0
-0.0126805 0.0032761 0
-0.0076014 0.00545779 0
-0.00910462 0.0101434 0
-0.00852719 0.0144419 0
-0.0135313 0.00968699 0
-0.0149092 0.0188837 0
-0.0277587 0.0238773 0
-0.0270502 0.0351124 0
-0.0215146 0.054164 0
-0.0190366 0.0569307 0
-0.0261824 0.0729993 0
-0.0238549 0.0817476 0
-0.0211333 0.0991186 0
-0.019211 0.103263 0
-0.0184558 0.125201 0
-0.0190419 0.12811 0
-0.0227936 0.132242 0
-0.020149 0.142414 0
-0.0201056 0.162652 0
-0.0163644 0.154973 0
-0.0175928 0.167446 0
-0.0162493 0.186223 0
-0.0115546 0.193049 0
-0.00915947 0.191815 0
-0.00744315 0.198478 0
-0.00732982 0.202813 0
-0.00495317 0.208878 0
-0.00494684 0.208105 0
-0.00498582 0.207705 0