<?xml version="1.0"?>
<VTKFile type="StructuredGrid"  version="0.1" byte_order="LittleEndian" compressor="vtkZLibDataCompressor">
  <StructuredGrid WholeExtent="0 200 0 20 0 0">
    <Piece Extent="0 200 0 20 0 0">
      <PointData Vectors="Velocity">
        <DataArray type="Float32" Name="Velocity" NumberOfComponents="3" format="ascii">
10.0039 -0.618552 0
9.48794 -0.617313 0
9.48121 -0.431252 0
9.15124 -0.349524 0
9.86263 -0.0408402 0
9.00726 0.176831 0
9.87438 0.394034 0
8.48864 0.291716 0
7.82086 1.22481 0
7.36093 1.25868 0
6.69898 1.10052 0
6.74758 0.605801 0
7.19863 0.230862 0
6.17898 1.13836 0
6.40399 1.59801 0
5.63675 1.29271 0
5.54359 1.29464 0
5.49701 1.41043 0
5.2903 1.58883 0
5.17828 1.26068 0
4.29117 0.944137 0
4.4381 1.08005 0
4.13836 1.07088 0
2.48295 0.61009 0
1.06406 0.202008 0
0.436428 0.000791422 0
0.259188 -0.0973742 0
0.152002 -0.25537 0
0.122511 -0.324942 0
0.0827516 -0.444036 0
0.0901898 -0.444532 0
0.0917176 -0.431101 0
0.153841 -0.471966 0
0.27054 -0.571478 0
0.136488 -0.435405 0
0.300884 -0.466804 0
0.248268 -0.858848 0
0.413507 -1.02321 0
0.150193 -1.13669 0
0.384862 -1.14404 0
0.405954 -1.2879 0
0.42819 -1.19269 0
0.44481 -1.16088 0
0.278818 -0.971674 0
0.254497 -1.05941 0
0.135645 -1.03916 0
0.0506513 -0.928607 0
-0.0141611 -0.684589 0
0.137958 -0.419848 0
0.178685 -0.228056 0
0.1695 -0.0481429 0
0.552753 0.0747355 0
0.536687 0.15599 0
0.538886 0.13481 0
0.536307 0.161402 0
0.520575 0.229209 0
0.388455 0.295892 0
0.306803 0.38407 0
0.26289 0.4156 0
0.348236 0.415687 0
0.454787 0.368579 0
0.568907 0.254578 0
0.555966 0.234577 0
0.372311 0.395844 0
0.321124 0.406907 0
0.270681 0.452026 0
0.233842 0.383056 0
0.193355 0.419426 0
0.0368561 0.309169 0
-0.124929 0.230724 0
-0.204668 0.0868174 0
-0.18286 0.10762 0
-0.207315 0.25078 0
-0.464911 0.318692 0
-0.365095 0.477681 0
-0.310446 0.419403 0
-0.336418 0.550294 0
-0.0689268 0.657081 0
-0.429749 0.837016 0
-0.328425 0.964684 0
-0.0533847 1.04645 0
-0.0334946 0.94108 0
-0.0435706 0.921871 0
-0.055105 0.917875 0
-0.0263842 0.919912 0
-0.0245032 0.829159 0
0.00925314 0.960004 0
0.0311489 0.939087 0
0.0457925 0.784568 0
0.0443154 0.789157 0
0.0305907 0.692207 0
0.0481831 0.848233 0
0.124702 0.871464 0
0.102585 0.771202 0
0.1322 0.666896 0
0.06027 0.536774 0
0.162068 0.43932 0
0.0944565 0.564117 0
0.0826735 0.537706 0
0.0383152 0.461182 0
0.00288408 0.458034 0
0.00941476 0.520267 0
0.019874 0.517398 0
0.0316113 0.508006 0
0.0899143 0.516241 0
0.0969349 0.437903 0
0.0995566 0.58934 0
0.214924 0.416753 0
0.163444 0.528993 0
0.233719 0.433569 0
0.203886 0.405389 0
0.0458821 0.459981 0
0.176671 0.366027 0
0.125486 0.276502 0
0.134317 0.244207 0
0.0868594 0.322652 0
0.0432074 0.344484 0
0.011084 0.357791 0
0.00820187 0.2772 0
-0.0197523 0.286602 0
-0.0180205 0.318395 0
-0.0161476 0.209818 0
0.00545532 0.222562 0
-0.0443148 0.151745 0
0.0107203 0.16026 0
-0.043182 0.0911258 0
-0.0231832 0.0306402 0
-0.017974 0.0180647 0
-0.094824 0.0363307 0
-0.0540383 0.0689494 0
-0.014531 0.0668876 0
-0.0209126 0.00986215 0
-0.0456254 0.0515096 0
-0.0164331 0.0543002 0
-0.014558 0.0230716 0
-0.0226185 0.037679 0
0.00322357 0.0710938 0
-0.0450837 0.0516459 0
-0.0648492 0.0889193 0
-0.0452111 0.0221711 0
-0.0190441 0.0568128 0
-0.0198744 0.0320894 0
-0.0171815 0.0761222 0
0.00539853 0.0798552 0
0.0110255 0.0320715 0
-0.00172116 0.036867 0
-0.000326198 0.0300051 0
0.0125343 0.0262161 0
0.0144062 0.0181046 0
0.0160247 0.0126771 0
0.00592437 0.00475119 0
0.00292495 0.002374 0
-0.00318197 0.0129323 0
-0.0103893 0.0261536 0
0.0164201 0.00805231 0
0.00843487 0.00556103 0
-0.00364635 0.00320296 0
0.00983023 -0.00338928 0
0.00409979 -0.0103127 0
0.0144893 -0.0197572 0
0.00957199 -0.0266082 0
0.0028599 -0.027341 0
0.00647083 -0.0219945 0
0.00219076 -0.0263102 0
0.0152556 -0.0300939 0
0.0174625 -0.0288991 0
0.00762665 -0.0286895 0
0.00100228 -0.0388369 0
-0.0014749 -0.0270856 0
-0.00424334 -0.0275399 0
-0.0053256 -0.0191316 0
-0.00460408 -0.0127109 0
-0.000579572 -0.00659951 0
-0.000575455 -0.00784145 0
0.00075185 -0.00549346 0
0.00112457 -0.00338885 0
0.00137199 -0.0089627 0
0.000476853 -0.00466393 0
0.00274691 -0.00165144 0
0.00138785 -0.00130534 0
0.00309091 -0.00121572 0
0.00179812 -0.00121879 0
0.00189159 -0.00429721 0
0.00357003 -0.00629849 0
0.00246901 -0.0050701 0
0.00127397 -0.00386036 0
0.00243165 -0.00701556 0
0.00474543 -0.00769909 0
0.00198769 -0.00666465 0
-0.0011609 -0.0049147 0
0.00335016 -0.0100928 0
0.00351152 -0.0022776 0
-0.000443416 -0.0069998 0
0.00488634 -0.0101392 0
0.00276754 -0.0101076 0
0.00182159 -0.00812616 0
0.00570027 -0.00575604 0
-0.00206716 -0.00977367 0
-0.000832152 0.000987787 0
-0.00108648 -0.000401049 0
0 -0.00101769 0
10.0039 -0.312263 0
10.2644 -0.526128 0
9.36167 -0.505681 0
9.45961 -0.420428 0
8.68785 -0.140474 0
8.90376 0.138999 0
8.41429 0.0924908 0
8.48273 0.772357 0
8.22155 0.783751 0
7.45519 0.591426 0
7.22907 0.814072 0
7.29728 0.599801 0
6.29233 0.100507 0
6.84854 1.36206 0
6.68538 1.00682 0
6.21979 1.48147 0
5.74928 1.03899 0
5.31325 1.00464 0
5.04424 1.43608 0
4.69807 1.06723 0
4.47311 1.12452 0
4.55157 0.974685 0
3.69671 0.476479 0
2.1722 0.143974 0
0.959359 0.0269682 0
0.328756 -0.072934 0
0.150507 -0.110496 0
0.0918916 -0.303926 0
0.0646909 -0.330836 0
0.0581139 -0.41378 0
0.09355 -0.463393 0
0.0115852 -0.416948 0
0.0303227 -0.478963 0
0.0930959 -0.46603 0
0.198428 -0.497726 0
0.181411 -0.710104 0
0.233067 -0.901306 0
0.293964 -0.984023 0
0.345927 -1.31488 0
0.157937 -1.02164 0
0.152804 -1.11514 0
0.14716 -0.94172 0
0.219956 -1.09616 0
0.359041 -1.1132 0
0.298488 -1.07364 0
0.391145 -0.993404 0
0.392253 -0.837491 0
0.305527 -0.633519 0
0.306386 -0.413608 0
0.272842 -0.205851 0
0.417763 -0.0535962 0
0.640639 0.0485834 0
0.577169 0.153211 0
0.552098 0.181977 0
0.562491 0.185517 0
0.511769 0.23993 0
0.395506 0.268178 0
0.34239 0.353427 0
0.352744 0.3941 0
0.418277 0.428953 0
0.506305 0.376806 0
0.539345 0.304221 0
0.488661 0.255346 0
0.507834 0.318626 0
0.426576 0.368066 0
0.372479 0.437331 0
0.231474 0.34944 0
0.128783 0.257742 0
0.00964437 0.142925 0
-0.0261652 0.120936 0
-0.127813 0.124798 0
-0.140696 0.174833 0
-0.277274 0.263445 0
-0.270025 0.280978 0
-0.312693 0.423505 0
-0.223047 0.466158 0
-0.201788 0.717429 0
-0.158 0.707483 0
-0.0792381 0.756061 0
-0.207245 1.01844 0
-0.177489 1.03639 0
-0.0761763 0.902888 0
-0.0575358 0.885107 0
-0.0171153 0.923763 0
-0.00958417 1.07443 0
-0.0109291 0.961421 0
0.0143537 1.00922 0
0.000254383 0.806526 0
0.0550375 0.895126 0
0.0919899 0.802222 0
0.00821288 0.807311 0
0.0197959 0.796703 0
-0.0125379 0.781376 0
0.0891996 0.813856 0
0.0127891 0.715056 0
0.0655158 0.616229 0
0.0502856 0.559082 0
0.149684 0.52559 0
0.0495254 0.511994 0
0.0147991 0.46462 0
0.0132128 0.477012 0
0.00932333 0.489484 0
0.0277563 0.490005 0
0.0668863 0.524348 0
0.00625947 0.470866 0
0.0849224 0.497562 0
0.153143 0.49267 0
0.123477 0.482154 0
0.17944 0.42118 0
0.208364 0.472776 0
0.148198 0.338599 0
0.14126 0.47524 0
0.077911 0.374215 0
0.0360827 0.389558 0
0.0569334 0.272 0
0.0879754 0.337276 0
0.0322759 0.305835 0
0.0254934 0.317289 0
0.024049 0.32528 0
-0.00702405 0.269 0
-0.0653163 0.271025 0
-0.0609892 0.225186 0
-0.0526152 0.141946 0
-0.0305101 0.0613296 0
-0.00839918 0.113377 0
-0.0198969 0.0875986 0
-0.0585275 0.0490919 0
-0.0431968 0.0464079 0
-0.0953803 0.0187463 0
-0.0843441 0.0357469 0
-0.0619591 0.0287692 0
-0.054062 0.0347739 0
-0.0544072 0.0462239 0
-0.0525438 0.0280341 0
-0.0479111 0.0512008 0
-0.0565776 0.0344167 0
-0.0599062 0.0114357 0
-0.0370657 0.0116278 0
-0.0323129 0.0480991 0
-0.0287998 0.0326036 0
-0.0408306 0.0434225 0
-0.0363113 0.0375398 0
-0.0279824 0.0541829 0
-0.0128037 0.0544336 0
-0.00487606 0.020533 0
-0.00708232 0.0206926 0
-0.0037846 0.0339097 0
0.00329023 0.0237104 0
0.0177978 0.00501827 0
0.00504304 0.0152462 0
0.00615249 0.010918 0
0.00861379 0.00636142 0
0.0170297 0.0103859 0
0.0130067 0.0250644 0
0.00271478 0.00441585 0
0.00167551 0.00211629 0
0.00539392 0.00481369 0
0.00177448 -0.00298663 0
0.00531117 -0.0132664 0
0.0147988 -0.0210181 0
0.00703063 -0.0280933 0
0.00496328 -0.0305819 0
0.0047073 -0.0298255 0
-0.00033796 -0.0278508 0
0.00167342 -0.0283712 0
0.00924369 -0.0286431 0
0.00618832 -0.0349152 0
0.00514981 -0.0347536 0
0.00305012 -0.0290183 0
0.000662646 -0.0248696 0
-0.00127367 -0.0167444 0
-0.00140729 -0.0131465 0
-0.000954624 -0.00711796 0
-0.00124644 -0.0088652 0
0.000633827 -0.00538854 0
0.000589817 -0.00242797 0
0.000677686 -0.00766231 0
-0.000694186 -0.00328877 0
-0.000884075 -0.00235416 0
0.000869655 -0.00271676 0
0.00213694 -0.00353927 0
0.0015142 0.000565113 0
0.00174654 -0.00262793 0
0.00151603 -0.00443928 0
0.000890845 -0.00771138 0
0.00114367 -0.00538523 0
0.00180739 -0.00796545 0
0.00102647 -0.0089873 0
0.00426753 -0.00706505 0
0.00481313 -0.0030302 0
-0.000249938 -0.00831622 0
0.00508745 -0.00498918 0
0.00627259 -0.00600617 0
0.00217959 -0.00264452 0
0.00174072 -0.00545067 0
0.0032719 -0.00420186 0
-0.00139802 -0.00468115 0
0.00097349 -0.00177117 0
0.00247111 -0.00717517 0
-0.000284567 -0.00462129 0
0 -0.00278093 0
10.0039 -0.0797813 0
9.76561 -0.291877 0
9.70934 -0.376542 0
9.63221 -0.204205 0
10.5509 -0.108443 0
9.30274 0.013584 0
8.42881 0.369813 0
9.16806 0.518404 0
6.90585 0.449133 0
8.8231 0.704196 0
7.89158 0.472441 0
7.92982 0.192427 0
7.3711 0.934683 0
6.96967 0.908141 0
6.62374 0.955504 0
5.8326 0.876491 0
5.43629 1.33792 0
5.37655 1.09463 0
5.16526 0.75603 0
4.81562 1.40838 0
4.62046 1.04275 0
4.23493 0.446706 0
3.42313 0.230022 0
2.1397 0.101587 0
0.911328 0.0518865 0
0.350346 0.00503411 0
0.136488 0.0141916 0
0.0608354 -0.275172 0
0.029009 -0.239738 0
0.0309193 -0.387686 0
0.0668869 -0.490522 0
0.0922986 -0.537183 0
0.0591499 -0.448049 0
0.05849 -0.489534 0
0.0463637 -0.56194 0
0.0303969 -0.775498 0
-0.0185629 -1.01215 0
-0.0445636 -1.06114 0
0.0177294 -1.28089 0
0.314609 -1.13976 0
0.131592 -1.08351 0
0.245601 -1.02396 0
0.233581 -1.04774 0
0.443235 -0.880474 0
0.672617 -1.08158 0
0.633641 -0.94437 0
0.744787 -0.728694 0
0.64502 -0.597143 0
0.509133 -0.263599 0
0.561348 -0.178833 0
0.661612 -0.122145 0
0.67219 0.0161183 0
0.590266 0.143647 0
0.649232 0.19687 0
0.530452 0.220692 0
0.424784 0.284004 0
0.334097 0.298833 0
0.443783 0.320463 0
0.450226 0.381719 0
0.556793 0.395979 0
0.575807 0.383357 0
0.567095 0.38104 0
0.541104 0.358537 0
0.531291 0.405033 0
0.502005 0.371489 0
0.33713 0.360426 0
0.095282 0.198553 0
-0.0425163 0.143186 0
-0.105326 0.00964541 0
-0.108556 0.0684232 0
-0.163996 0.191872 0
-0.131947 0.114453 0
-0.0899677 0.268388 0
-0.0682232 0.411268 0
-0.0423756 0.414864 0
-0.0605014 0.638393 0
-0.0394988 0.670096 0
-0.0735871 0.745367 0
-0.0506487 0.693976 0
-0.155349 1.01251 0
-0.135899 1.02011 0
-0.13567 0.905183 0
-0.0335342 0.932706 0
-0.0885257 0.926783 0
-0.10101 0.851937 0
-0.0777336 0.974495 0
-0.0369143 0.920836 0
-0.018749 0.815398 0
0.0666506 0.924605 0
0.101821 0.840135 0
0.0779795 0.732002 0
0.100607 0.927736 0
0.0774298 0.757261 0
0.0440422 0.897734 0
0.0213686 0.761568 0
0.0397253 0.690157 0
0.0427671 0.630919 0
0.0670927 0.538882 0
0.0107396 0.499656 0
0.00552795 0.516818 0
-0.0108205 0.53058 0
0.00340565 0.498646 0
0.0155138 0.541895 0
0.0643802 0.578034 0
0.147154 0.587312 0
0.0811144 0.591596 0
0.159416 0.578037 0
0.216676 0.514923 0
0.172819 0.464779 0
0.109909 0.429882 0
0.145897 0.419966 0
0.142216 0.408648 0
0.055421 0.331188 0
0.000547206 0.253475 0
0.010845 0.305834 0
0.0145449 0.312036 0
-0.0165492 0.297613 0
0.0116062 0.407567 0
-0.0242294 0.234113 0
-0.0342109 0.212566 0
-0.00566575 0.170437 0
-0.1109 0.284362 0
-0.10438 0.124521 0
-0.0593135 0.0540343 0
-0.0514474 0.143742 0
-0.0289777 0.07708 0
-0.00126136 0.0811498 0
-0.0238481 0.045396 0
-0.0190267 0.0156767 0
-0.0906526 0.0429236 0
-0.0872011 0.041709 0
-0.0782293 0.00146547 0
-0.073744 0.0625257 0
-0.0731595 0.0484024 0
-0.0807862 0.039622 0
-0.0723168 0.0318654 0
-0.0662551 0.0229608 0
-0.0430609 0.0207615 0
-0.041581 0.0385503 0
-0.0372983 0.0456528 0
-0.0527803 0.0421145 0
-0.0452689 0.0560117 0
-0.0279817 0.0501693 0
-0.0294175 0.0496423 0
-0.032108 0.0286638 0
-0.018496 0.0158622 0
-0.00718309 0.0235366 0
-0.00411573 0.00944516 0
-0.00202103 0.00241155 0
-0.00547249 0.0347234 0
0.00567465 0.0112005 0
0.01682 0.0257813 0
0.0225312 0.0139324 0
0.00602408 0.0143119 0
0.00154507 0.0092861 0
0.00637027 -0.001925 0
0.00207071 0.00470982 0
-0.0047999 -0.00740099 0
-0.00274664 -0.0137929 0
0.00057241 -0.019308 0
0.0117733 -0.027047 0
0.0121703 -0.0359933 0
0.0121019 -0.0366061 0
0.00588388 -0.0388684 0
0.00176704 -0.0385688 0
0.00315483 -0.0315192 0
0.00223526 -0.030289 0
0.000955019 -0.0359301 0
0.00156021 -0.0298605 0
-0.000245798 -0.0285123 0
-0.000690664 -0.0209593 0
-0.000345846 -0.0158437 0
-0.00091986 -0.011698 0
-0.00119852 -0.00618564 0
0.000249895 -0.00690441 0
3.26016e-05 -0.00416063 0
0.000221199 -0.00638498 0
0.00148657 -0.00413746 0
0.000363514 -0.00303826 0
0.000850043 -0.00222078 0
0.00141951 -0.00185422 0
0.000774455 -0.00214033 0
0.0015121 -0.00372153 0
-0.000154312 -0.00400023 0
0.00214162 -0.00300902 0
0.00333318 -0.00766922 0
0.00289798 -0.00649713 0
0.00141858 -0.0059396 0
0.0066456 -0.00470339 0
0.00397482 -0.00332661 0
0.000539785 -0.00644626 0
0.00531654 -0.00706689 0
0.00262445 -0.010328 0
0.0052914 -0.00506309 0
0.00469752 -0.00769674 0
0.00508814 -0.00771444 0
0.0015941 -0.00801826 0
0.00106024 -0.00464638 0
0.00286877 -0.00314768 0
9.31284e-05 -0.00337155 0
0 -0.00561824 0
10.0039 -0.340336 0
10.2609 -0.00535932 0
9.99077 -0.0557279 0
9.84388 -0.0710545 0
9.80516 -0.286715 0
9.66527 -0.228436 0
9.60912 0.0602534 0
8.63272 0.0149032 0
8.93483 0.207444 0
7.60348 0.279972 0
7.15209 0.240198 0
8.60405 0.0654622 0
7.37501 0.542866 0
6.99136 0.38923 0
6.6768 0.715185 0
5.94068 0.940228 0
5.72673 1.23651 0
5.07928 0.921424 0
5.60066 0.988394 0
5.13991 1.17789 0
4.68111 0.591563 0
4.07277 0.145295 0
3.35398 0.0336809 0
2.19923 7.67526e-05 0
1.00398 0.0168901 0
0.372983 -0.0110456 0
0.16413 -0.0101683 0
0.0694147 -0.146508 0
0.0810047 -0.31668 0
0.110464 -0.335907 0
0.0929292 -0.487624 0
0.123264 -0.43031 0
0.225675 -0.474445 0
0.296676 -0.197442 0
0.134166 -0.503928 0
0.031946 -0.764177 0
0.198957 -0.96997 0
0.379396 -1.07597 0
0.566345 -1.07752 0
0.654284 -1.06536 0
0.881701 -1.2779 0
0.913954 -1.15621 0
1.03109 -1.00845 0
0.949737 -0.861181 0
0.923081 -0.925143 0
0.817319 -0.85236 0
0.778736 -0.781279 0
0.899062 -0.63351 0
0.774824 -0.425983 0
0.659027 -0.296512 0
0.744999 -0.0828315 0
0.879881 0.0325789 0
1.03777 0.0714442 0
0.95959 0.174078 0
0.940301 0.200234 0
0.733131 0.218892 0
0.591365 0.35345 0
0.568346 0.353578 0
0.552621 0.38601 0
0.446211 0.4031 0
0.545016 0.503905 0
0.719196 0.417948 0
0.749616 0.386062 0
0.712569 0.464197 0
0.67364 0.318295 0
0.377561 0.134515 0
0.222763 -0.0387733 0
0.0145984 -0.0393044 0
-0.0430871 -0.0213537 0
-0.0999824 0.0712838 0
-0.0208972 0.149309 0
-0.134261 0.175676 0
-0.12458 0.266522 0
-0.0384376 0.233224 0
0.0157853 0.466725 0
0.00731775 0.663321 0
-0.0528772 0.594096 0
-0.0679468 0.685202 0
-0.124741 0.800179 0
-0.116499 0.963843 0
-0.0626813 1.01689 0
-0.0738839 1.0119 0
-0.0421605 0.989187 0
-0.0732168 0.824613 0
-0.0291093 0.906058 0
-0.0344042 0.806818 0
-0.0537543 0.820958 0
-0.00949524 0.947576 0
0.026068 0.94726 0
0.0502597 0.972447 0
0.0969296 0.782911 0
0.0358819 0.88693 0
0.0115403 0.842813 0
0.00740955 0.853329 0
-0.0149053 0.680822 0
-0.0154628 0.693508 0
-0.0261998 0.634795 0
-0.0157836 0.582272 0
-0.00282644 0.514746 0
-0.00343527 0.506885 0
-0.0142643 0.549415 0
-0.00740841 0.560828 0
0.00941449 0.605141 0
0.0464969 0.629163 0
0.0918965 0.650777 0
0.0968105 0.617637 0
0.0675587 0.620229 0
0.114438 0.523862 0
0.109548 0.520985 0
0.0840781 0.471991 0
0.0980895 0.516078 0
0.0167769 0.361849 0
0.0627999 0.397029 0
0.0819421 0.335716 0
0.00202402 0.291093 0
-0.0514136 0.399608 0
-0.028456 0.293846 0
-0.0653449 0.317595 0
-0.0674634 0.277704 0
-0.0654559 0.138602 0
-0.0528781 0.180922 0
-0.0223964 0.160425 0
-0.100034 0.146795 0
-0.0751029 0.049648 0
-0.0718783 0.0247575 0
-0.0511515 0.0966813 0
-0.0297471 0.0643196 0
-0.020011 0.0274384 0
-0.0111447 0.0183495 0
-0.00891961 0.0231668 0
-0.0473316 0.0259524 0
-0.0538317 -0.00606037 0
-0.0551937 0.0161746 0
-0.066569 0.0679974 0
-0.0716181 0.0135883 0
-0.0861973 0.0249006 0
-0.0477294 0.0251092 0
-0.0243212 0.0210269 0
-0.0450079 0.0722028 0
-0.0314193 0.0631514 0
-0.059333 0.077269 0
-0.0486408 0.0831152 0
-0.0358511 0.0641656 0
-0.0358395 0.0942496 0
-0.0162727 0.0563877 0
-0.0147247 0.0385619 0
-0.0198892 0.0441919 0
-0.0140022 0.0410584 0
-0.00247595 0.0197658 0
0.00467616 0.0252574 0
-0.00412183 0.00474473 0
0.010171 0.0227564 0
0.00744953 0.0177229 0
0.00662718 0.0120097 0
0.00540863 0.00467862 0
0.00476191 0.00971945 0
0.00144294 0.00310847 0
-0.00863669 -0.00984122 0
0.0111335 -0.0147728 0
0.0080088 -0.0197277 0
-0.00211045 -0.0246238 0
0.00115673 -0.0320264 0
0.0157878 -0.0417928 0
0.0120488 -0.0474079 0
0.0040584 -0.045736 0
-9.09805e-05 -0.0374365 0
-0.00165791 -0.0338161 0
-0.00194864 -0.034461 0
-0.00137576 -0.0315384 0
-0.000692659 -0.0300717 0
0.000275739 -0.0245846 0
-0.00127948 -0.0209212 0
-0.00230547 -0.0136049 0
-0.00232726 -0.0113781 0
-0.00171226 -0.0100246 0
-0.000236174 -0.00536961 0
-8.83445e-05 -0.00511579 0
0.00135758 -0.00428144 0
0.00167033 -0.00271564 0
-0.000753019 -0.00261992 0
-0.000478977 -0.00119243 0
0.00126703 -0.00123174 0
0.0019251 -0.00193745 0
5.49902e-05 -0.00319519 0
0.000506 -0.00210827 0
1.817e-05 -0.00479381 0
0.000621992 -0.00820918 0
0.00214908 -0.00133212 0
0.00525783 -0.00715857 0
0.003974 -0.00689917 0
0.00461039 -0.00683194 0
0.00109612 -0.00512694 0
0.00255757 -0.0032921 0
0.00199724 -0.00428514 0
0.00347312 -0.00221567 0
0.00204651 -0.00366858 0
0.00249207 -0.00437123 0
0.0020014 -0.00371407 0
-0.000324524 -0.00645034 0
0.00157796 -0.0105356 0
0 -0.00428757 0
10.0039 -0.306756 0
10.2746 -0.389746 0
10.0216 -0.125237 0
9.63198 -0.307689 0
9.88894 -0.444415 0
9.87472 -0.13167 0
9.71962 -0.375466 0
9.31002 -0.369505 0
9.1298 -0.167567 0
9.62802 -0.219688 0
7.97941 -0.0531127 0
8.40913 0.0301275 0
7.29677 0.0485391 0
6.51852 0.19752 0
6.60706 0.710112 0
5.98161 0.973453 0
5.63539 1.10779 0
5.93818 0.932463 0
5.52815 0.999474 0
5.24885 0.509327 0
4.90952 0.280101 0
4.18602 0.0636613 0
3.3888 -0.103785 0
2.27999 -0.0146068 0
1.15421 -0.0184839 0
0.46274 -0.00705491 0
0.263476 -0.0178734 0
0.221539 -0.273905 0
0.198231 -0.312058 0
0.175498 -0.247798 0
0.242937 -0.434163 0
0.369623 -0.443396 0
0.433903 -0.356634 0
0.527211 -0.310367 0
0.664428 -0.575823 0
0.934425 -0.669726 0
1.05537 -0.816368 0
1.23971 -1.18048 0
1.21293 -1.09541 0
1.11509 -1.18116 0
1.12098 -1.12359 0
1.17526 -1.01117 0
1.11071 -1.06737 0
1.41536 -0.886864 0
1.33522 -0.89551 0
1.25635 -0.853536 0
1.1661 -0.832276 0
1.29294 -0.576032 0
1.48225 -0.315719 0
1.83319 -0.2099 0
2.27813 -0.0483025 0
2.42236 0.235143 0
2.65922 0.187281 0
2.88153 0.137068 0
2.90352 0.0459667 0
2.62829 0.0832401 0
2.27491 0.123873 0
1.91989 0.298996 0
1.85788 0.330285 0
1.57143 0.292994 0
1.4022 0.48897 0
1.17857 0.424662 0
1.11458 0.301768 0
1.07746 0.360476 0
1.00916 0.185222 0
1.00274 -0.14357 0
0.679677 -0.231148 0
0.632986 -0.267498 0
0.398214 -0.0990277 0
0.23834 -0.00987863 0
0.157486 0.121798 0
0.150473 0.0739114 0
-0.0226257 0.220336 0
0.0372441 0.49766 0
0.0626386 0.554973 0
0.1141 0.641015 0
0.0510674 0.751401 0
0.0686465 0.841298 0
-0.000241865 0.87266 0
0.0423305 0.969764 0
-0.021916 1.01159 0
-0.110521 0.923733 0
-0.0835504 0.993485 0
-0.0464932 0.861793 0
-0.0454817 0.85921 0
-0.0136241 0.900619 0
0.0249153 1.12929 0
0.0416133 1.25393 0
0.00298939 0.866716 0
-0.0179756 1.0269 0
0.0248528 0.934949 0
0.000455258 0.942789 0
-0.0426877 0.907022 0
-0.0768864 0.805326 0
-0.0993634 0.723361 0
-0.100621 0.728565 0
-0.11536 0.617504 0
-0.0936779 0.596969 0
-0.0501495 0.567911 0
-0.0215777 0.55773 0
0.00954476 0.575973 0
0.00809955 0.594621 0
0.0117273 0.620435 0
0.0421067 0.743706 0
0.150683 0.709801 0
0.0943855 0.63922 0
0.0977974 0.6981 0
0.0322395 0.554241 0
0.0837478 0.505805 0
0.143577 0.425542 0
0.038932 0.434463 0
0.0851488 0.455114 0
0.0492057 0.38683 0
-0.0117983 0.313172 0
-0.00154528 0.292002 0
-0.00233566 0.256438 0
0.0255339 0.270283 0
-0.003037 0.262781 0
-0.147722 0.23907 0
-0.104318 0.194072 0
-0.104027 0.11994 0
-0.0879609 0.172698 0
-0.0841407 0.1027 0
-0.0930268 0.117534 0
-0.0685006 0.0119714 0
-0.0825744 0.00316853 0
-0.0491692 0.10313 0
-0.0268313 0.0541098 0
0.00793698 0.0193384 0
-0.0338692 0.0278913 0
-0.0440248 0.0161465 0
-0.10503 -0.00530572 0
-0.0822346 0.0352785 0
-0.0827269 0.0326547 0
-0.072863 0.0377355 0
-0.066905 0.0242604 0
-0.0348187 0.0329192 0
-0.027753 0.0248364 0
-0.0340418 0.0332486 0
-0.0354895 0.0255173 0
0.0105151 0.0210275 0
0.00711336 0.055859 0
-0.0347329 0.0326211 0
-0.0169366 0.0456336 0
-0.0303106 0.00558572 0
-0.0150298 0.0796103 0
-0.00365629 0.0458185 0
-0.00617313 0.0214441 0
-0.0166546 0.0116478 0
-0.00151235 0.00360517 0
-0.0030999 -0.00204401 0
-0.0047721 0.0396344 0
-0.00404542 0.0156247 0
-0.00137533 0.0172837 0
-0.00134728 -0.000260438 0
-0.00450196 0.0105699 0
-0.008336 0.00200892 0
-0.00438249 -0.00902029 0
-0.000807007 -0.00997372 0
0.011457 -0.0280886 0
0.00375341 -0.0397338 0
-0.00242114 -0.0371546 0
-0.00319951 -0.0412359 0
0.00824519 -0.0487702 0
0.0034905 -0.0552936 0
-0.000206742 -0.0502509 0
-0.00643811 -0.0385777 0
-0.00574109 -0.0353479 0
-0.0018615 -0.031705 0
-0.00048846 -0.0318199 0
-0.000660587 -0.0228993 0
-0.00178791 -0.0243124 0
-0.00436808 -0.0148135 0
-0.0044005 -0.014561 0
-0.00292177 -0.0131082 0
-0.00179676 -0.00546943 0
-0.000841641 -0.00475741 0
0.000513217 -0.00448275 0
0.000171137 -0.00200203 0
0.000252833 -0.00169152 0
0.00172788 -0.0032436 0
0.00106112 0.000599154 0
0.000349 -0.00246004 0
0.000997061 -0.00559313 0
0.00157881 -0.00418038 0
0.00242469 -0.00606743 0
0.00500248 -0.00786466 0
0.0040461 -0.00472277 0
0.0025203 -0.00525835 0
0.00341385 -0.00614888 0
0.00492994 -0.00706451 0
0.00261553 -0.0076069 0
0.00279624 -0.0115996 0
0.00114904 -0.00720892 0
0.000779896 -0.0105472 0
0.000858232 -0.0115176 0
0.00172395 -0.00780313 0
0.00115198 -0.00852701 0
0.000360719 -0.00535562 0
0.00116172 -0.00363195 0
0 -0.00941833 0
10.0039 -0.148931 0
10.199 -0.0548941 0
9.1832 -0.525677 0
9.55371 -0.431734 0
9.7013 -0.172656 0
10.0917 -0.600967 0
9.34618 -0.700802 0
10.0685 -0.752443 0
8.58339 -0.120762 0
8.61047 -0.635336 0
7.74206 -0.374915 0
9.61322 -0.144965 0
7.39353 -0.131392 0
7.14606 -0.0917886 0
7.20521 0.135795 0
6.61963 0.942539 0
6.78068 0.728715 0
5.65246 0.757434 0
6.24277 0.536763 0
5.03933 0.191487 0
5.38941 0.169465 0
4.43677 0.0765059 0
3.57344 0.0264189 0
2.52565 0.0467887 0
1.45377 0.0700401 0
0.797865 0.0201011 0
0.503833 -0.161319 0
0.438859 -0.23049 0
0.439143 -0.239888 0
0.476238 -0.338743 0
0.623823 -0.292433 0
0.649496 -0.227279 0
0.652606 -0.212466 0
0.610301 -0.261237 0
0.803298 -0.694875 0
0.834813 -0.773045 0
0.880831 -0.897946 0
1.16261 -1.19092 0
1.46424 -0.99918 0
1.50237 -1.02335 0
1.40361 -1.04506 0
1.4772 -1.17887 0
1.3192 -0.926268 0
1.50924 -0.824908 0
1.6172 -0.838479 0
1.83486 -0.734921 0
2.11192 -0.504698 0
2.23746 -0.316071 0
2.36805 -0.0236489 0
2.79945 0.0606175 0
2.89209 -0.0208617 0
2.8246 0.199459 0
2.73172 0.228842 0
2.75935 0.24181 0
2.87667 0.163877 0
2.6661 0.131057 0
2.41619 0.138823 0
2.18875 0.302162 0
2.0765 0.433514 0
1.88777 0.210375 0
1.89651 0.374862 0
1.99796 0.382771 0
1.86203 0.286444 0
1.76387 0.134354 0
1.30933 0.0218156 0
1.28413 -0.106261 0
1.28369 -0.385281 0
1.43333 -0.407217 0
1.54067 -0.25214 0
1.48293 -0.113018 0
1.46629 0.0719047 0
1.50519 -0.00778174 0
1.33487 0.0816423 0
0.951023 0.421807 0
0.784282 0.647655 0
0.520048 0.636309 0
0.31038 0.669802 0
0.181309 0.737015 0
0.119076 0.861364 0
0.0183838 0.931999 0
0.0329653 1.04853 0
-0.0402797 0.985804 0
-0.00840333 1.04003 0
-0.0901689 0.938359 0
-0.0962313 1.03185 0
0.025491 1.0303 0
-0.00548898 1.09675 0
-0.0369759 1.20098 0
-0.00668231 1.05016 0
0.0141879 1.12278 0
0.0234495 0.95815 0
-0.0207257 0.901739 0
-0.122923 0.811422 0
-0.239824 0.811865 0
-0.240496 0.793293 0
-0.183654 0.81632 0
-0.150527 0.796988 0
-0.147366 0.724955 0
-0.117027 0.709991 0
-0.0501062 0.729567 0
0.0159756 0.80581 0
0.0501088 0.682127 0
0.0498103 0.689633 0
0.0591107 0.719574 0
0.0482657 0.734673 0
0.0418141 0.691413 0
-0.00539099 0.720141 0
0.0714969 0.706342 0
0.0806636 0.59104 0
0.093641 0.533827 0
0.0608825 0.432271 0
0.0344005 0.46591 0
0.0141567 0.357492 0
0.0123292 0.292842 0
-0.0140877 0.293897 0
-0.0610097 0.317728 0
-0.0383318 0.267149 0
-0.0447443 0.199464 0
-0.0307731 0.177548 0
-0.0431597 0.228487 0
-0.0683372 0.146961 0
-0.124456 0.114848 0
-0.086868 0.133477 0
-0.0661973 0.115209 0
-0.13451 0.0662333 0
-0.12632 -0.00307672 0
-0.0960279 0.0295694 0
-0.0632347 0.0734049 0
-0.0860163 0.0424397 0
-0.0944971 -0.0148727 0
-0.0682625 -0.00611463 0
-0.0939865 0.00132244 0
-0.128784 0.0155579 0
-0.110905 -0.00604582 0
-0.0985789 0.0486576 0
-0.098299 0.0299612 0
-0.105085 0.0192777 0
-0.107175 0.0425191 0
-0.067507 0.00722207 0
-0.0621558 0.044816 0
-0.0313989 0.0406926 0
-0.0282685 0.0886168 0
-0.00943549 0.106365 0
-0.00894174 0.0758982 0
-0.0153762 0.0507837 0
-0.0277132 0.04848 0
-0.0207579 0.0501713 0
-0.0205775 0.021405 0
-0.0208216 0.0284911 0
-0.0141317 0.0258585 0
-0.00786905 0.0409765 0
-0.00326086 0.0306094 0
-0.00563078 0.0326807 0
-0.00762725 0.0120415 0
-0.00303792 -0.000594759 0
-0.0190853 0.0160764 0
-0.0165375 0.00121157 0
-0.0124509 -0.0149611 0
-0.00990771 -0.0261636 0
-0.00772972 -0.0279994 0
-0.00408844 -0.0407147 0
-0.00821504 -0.0583063 0
-0.0123941 -0.0501723 0
-0.0078154 -0.041734 0
-0.00473557 -0.0350196 0
-0.0071384 -0.0445111 0
-0.0122013 -0.0471694 0
-0.0138037 -0.026274 0
-0.00948345 -0.0209533 0
-0.00432632 -0.0295454 0
-0.00305254 -0.0293503 0
-0.00177543 -0.0207683 0
-0.00010967 -0.0158057 0
-0.00881563 -0.0197386 0
-0.00548466 -0.0159896 0
-0.00235897 -0.00670545 0
-0.00139429 -0.00551068 0
-0.00123107 -0.00552694 0
-0.00121013 -0.00219401 0
-0.000755141 -0.00147209 0
-0.00078047 -0.00206303 0
0.000138589 -0.00116692 0
0.000537652 -0.00200201 0
0.000913716 -0.00338591 0
0.00141917 -0.00527715 0
0.00135216 -0.00214944 0
0.00170197 -0.00476057 0
0.00141857 -0.00127804 0
0.00155768 -0.0079629 0
0.0034866 -0.00550638 0
0.00305579 -0.00503047 0
0.00323938 -0.00512242 0
0.00185478 -0.00426315 0
0.00116018 -0.00929018 0
0.000333378 -0.00461891 0
0.00112464 -0.00513223 0
0.000618927 -0.0112441 0
0.000644543 -0.00638992 0
0.000866599 -0.00810732 0
-0.000919006 -0.00181794 0
0 -0.00962713 0
10.0039 0.00700077 0
10.2096 -0.10867 0
9.52929 -0.0202915 0
9.63542 -0.0346173 0
9.23378 -0.583571 0
9.43919 -0.38555 0
9.28275 -0.764546 0
8.8018 -0.536867 0
9.30556 -0.573826 0
9.10465 -0.470106 0
8.33296 -0.667457 0
9.74453 -0.783745 0
8.77941 -0.40092 0
8.30144 -0.127191 0
7.82462 0.130914 0
7.51564 0.292448 0
7.08188 0.0301941 0
7.38324 0.294575 0
6.63786 0.131475 0
5.7894 0.146079 0
5.79816 0.0417955 0
4.67316 -0.0271416 0
3.90604 0.116668 0
3.06647 0.261906 0
2.0269 0.122926 0
1.3093 0.0277304 0
0.983508 -0.0964411 0
0.966651 -0.0882083 0
0.982404 -0.192044 0
0.973699 -0.157782 0
0.956766 -0.0324844 0
1.07611 -0.176674 0
0.908703 -0.11229 0
0.995191 -0.0403818 0
1.38431 -0.372163 0
1.73988 -0.385359 0
1.87162 -0.340001 0
2.08665 -0.526482 0
2.2406 -0.82322 0
2.22436 -0.838911 0
2.23086 -0.98212 0
2.18178 -0.844472 0
2.02664 -0.755238 0
2.31241 -0.71563 0
2.79243 -0.540025 0
2.89399 -0.438236 0
3.25766 -0.149595 0
3.15788 -0.114562 0
3.19131 0.0449095 0
3.30431 0.214096 0
3.50209 0.0100274 0
3.79743 0.239747 0
3.64577 0.216147 0
3.53229 0.208352 0
3.0701 0.202474 0
2.53336 0.243722 0
2.53704 0.152863 0
2.50751 0.266352 0
2.69345 0.470713 0
2.3388 0.355252 0
2.20602 0.43154 0
2.07939 0.475421 0
1.95042 0.174529 0
1.85586 0.0668671 0
1.79089 -0.0468363 0
1.68387 -0.292234 0
1.54757 -0.480766 0
1.52299 -0.41496 0
1.54365 -0.232321 0
1.69389 -0.071636 0
1.96234 -0.0984841 0
1.86927 -0.139378 0
2.13211 -0.0902449 0
2.09091 0.307501 0
2.07555 0.453614 0
1.78178 0.500979 0
1.74284 0.544378 0
1.23914 0.623256 0
0.751271 0.677424 0
0.724748 0.873584 0
0.17886 0.714038 0
0.113123 1.0048 0
-0.071647 0.95168 0
-0.0392435 1.1055 0
-0.0353821 1.11268 0
-0.00660592 1.13695 0
0.0202872 1.08205 0
-0.042698 1.19787 0
-0.00533649 1.14919 0
0.0385462 1.0634 0
0.0165035 0.957576 0
-0.0923361 0.79141 0
-0.280693 0.650605 0
-0.288883 0.674801 0
-0.242042 0.810258 0
-0.215241 0.859297 0
-0.166988 0.92134 0
-0.127253 0.892883 0
-0.0865082 0.858512 0
-0.0736995 0.910944 0
0.0377451 0.950426 0
0.117087 0.883928 0
0.112101 0.806639 0
0.136213 0.819615 0
0.0819883 0.804308 0
0.0423821 0.704839 0
0.0335692 0.832792 0
0.0808621 0.829459 0
0.103311 0.777174 0
0.0731082 0.63047 0
0.0681999 0.497111 0
0.0463867 0.53031 0
0.00998769 0.456303 0
-0.024364 0.320627 0
-0.0930835 0.367277 0
-0.0965922 0.338178 0
-0.0489613 0.285469 0
-0.079847 0.26635 0
-0.0661679 0.150288 0
-0.0873839 0.107156 0
-0.0118204 0.115476 0
-0.0733251 0.107216 0
-0.0689728 0.159132 0
-0.116695 0.187894 0
-0.143746 0.103593 0
-0.130058 0.0382982 0
-0.11723 0.0187558 0
-0.108979 0.0359441 0
-0.144787 0.0190404 0
-0.122287 0.0374327 0
-0.118224 0.0206186 0
-0.133306 0.00662913 0
-0.109986 0.00257428 0
-0.0911088 0.00977013 0
-0.0366129 0.0356496 0
-0.0682279 0.0027249 0
-0.0484936 0.00440456 0
-0.0535572 0.00841158 0
-0.0862897 0.0347157 0
-0.0897308 0.0439936 0
-0.0822645 0.0422146 0
-0.0744964 0.0336255 0
-0.0619581 0.0175961 0
-0.0643248 0.00676752 0
-0.045318 0.0594004 0
-0.0468609 0.027769 0
-0.0387229 0.0600018 0
-0.0204398 0.0380163 0
-0.0260302 0.0544953 0
-0.0284781 -0.00138236 0
-0.0215931 0.0399781 0
-0.0066905 0.0225543 0
0.00213885 0.0210842 0
-0.00717631 0.0181229 0
-0.00323484 -0.00200483 0
0.00296847 -0.00377001 0
-0.00191732 -0.00483526 0
-0.00516279 -0.00141418 0
0.00175302 -0.0369261 0
-0.0309424 -0.0428356 0
-0.0307062 -0.0366861 0
-0.0260973 -0.0391822 0
-0.036927 -0.0404113 0