<?xml version="1.0"?>
<VTKFile type="StructuredGrid"  version="0.1" byte_order="LittleEndian" compressor="vtkZLibDataCompressor">
  <StructuredGrid WholeExtent="0 200 0 20 0 0">
    <Piece Extent="0 200 0 20 0 0">
      <PointData Vectors="Velocity">
        <DataArray type="Float32" Name="Velocity" NumberOfComponents="3" format="ascii">
10.0039 -0.492369 0
10.1577 0.451972 0
7.93165 0.567451 0
8.37415 -0.424003 0
7.5438 0.549187 0
3.45081 -1.34297 0
1.39779 -0.106486 0
0.183724 -1.40038 0
-0.128036 -4.2489 0
-0.378784 -3.38396 0
2.24769 -1.93538 0
5.17871 -0.920908 0
6.4046 -0.45246 0
8.27132 -0.306789 0
9.07029 -0.291171 0
9.21188 -0.405395 0
9.53572 -0.330598 0
9.85517 -0.597321 0
9.66258 -0.580495 0
9.49459 -0.115991 0
9.41474 0.0521428 0
9.63983 -0.299986 0
10.0515 -1.03753 0
10.3419 -1.38847 0
10.3236 -1.17481 0
10.2391 -1.05925 0
10.1283 -0.798749 0
10.2269 -0.728011 0
10.3748 -0.0896563 0
10.5179 -0.0147336 0
10.5499 0.0306684 0
10.545 -0.0451227 0
10.5052 -0.0460253 0
10.4073 -0.0977111 0
10.2722 -0.168302 0
10.0857 -0.166379 0
9.9781 -0.0980742 0
9.93546 -0.0297297 0
10.0362 0.112377 0
10.2898 0.0178126 0
10.208 -0.128781 0
10.1977 -0.490175 0
10.2319 -0.58054 0
10.263 -0.566799 0
10.3025 -0.572107 0
10.4355 -0.540144 0
10.5713 -0.552445 0
10.7441 -0.952359 0
10.752 -0.960956 0
10.74 -1.05284 0
10.8006 -1.07032 0
10.9136 -1.11588 0
10.9031 -1.13973 0
10.9137 -1.14384 0
10.9162 -1.21657 0
10.922 -1.21478 0
10.9014 -1.28484 0
10.8718 -1.22922 0
10.8438 -1.38224 0
10.8816 -1.43373 0
10.8593 -1.51304 0
10.8869 -1.56137 0
10.8748 -1.64232 0
10.848 -1.61571 0
10.5258 -1.41506 0
9.96955 -1.20171 0
9.42686 -0.952555 0
8.69762 -0.0521572 0
8.3421 0.334787 0
8.43476 0.195448 0
8.44402 0.218098 0
8.43911 0.269462 0
8.54136 0.476422 0
8.52934 0.537081 0
8.07772 0.48546 0
8.01313 0.638201 0
7.85073 0.530922 0
7.86228 0.451741 0
7.23881 0.527789 0
7.0946 0.57926 0
7.51326 0.351669 0
7.60034 0.349713 0
7.16698 0.594194 0
7.55016 0.741849 0
6.18433 3.14814 0
4.95732 2.67329 0
3.85003 0.480236 0
1.52133 1.18424 0
1.75685 1.66205 0
0.89804 2.36047 0
0.597691 1.8952 0
0.487881 1.6657 0
0.0775623 1.20235 0
0.249571 1.0616 0
0.203822 0.940672 0
0.00705685 0.9353 0
0.117261 0.780782 0
0.0316422 0.669744 0
0.0242896 0.425223 0
0.0730046 0.195473 0
0.0883544 0.153658 0
0.118014 0.0810519 0
0.227775 0.229908 0
0.11717 0.0927519 0
0.591511 0.210075 0
0.413352 0.140368 0
0.292117 0.107826 0
0.148313 0.107999 0
0.145464 0.0896088 0
0.0515907 0.0485453 0
0.0826523 0.0141328 0
0.0306266 0.0507329 0
-0.0319073 -0.0678424 0
-0.0346295 0.18589 0
-0.0618402 -0.0580449 0
0.0291131 0.0397919 0
0.0328861 -0.0749042 0
0.0269988 -0.0343027 0
-0.00448374 0.00427604 0
-0.0126365 -0.0287907 0
-0.044639 0.0210977 0
-0.0306403 0.0655684 0
-0.0132891 0.140753 0
-0.0456231 0.169152 0
-0.0693459 0.241544 0
-0.0353939 0.256899 0
-0.0687428 0.176175 0
-0.0178015 0.229887 0
0.0385336 0.214935 0
0.122852 0.290518 0
0.0698432 0.262545 0
0.0660693 0.153691 0
0.0350807 0.401762 0
0.0315449 0.323249 0
-0.0157975 0.309321 0
-0.0514731 0.305877 0
-0.0694726 0.175659 0
-0.0850063 0.137464 0
0.00649513 0.190167 0
0.0162935 0.101754 0
0.00306054 0.168534 0
0.040557 0.119685 0
0.0598717 0.0916715 0
0.0764889 0.0781961 0
0.0410986 0.0967919 0
0.0216976 -0.0867043 0
0.0506718 -0.233364 0
-0.032764 -0.273827 0
-0.0370629 -0.264001 0
-0.0410909 -0.262161 0
-0.0371322 -0.248247 0
-0.0320619 -0.229625 0
-0.0400757 -0.213305 0
-0.0297326 -0.204326 0
-0.0236155 -0.191748 0
-0.0308705 -0.161055 0
-0.0263749 -0.161922 0
-0.0186028 -0.154016 0
-0.00625639 -0.152282 0
-0.00628927 -0.133554 0
-0.00329009 -0.121039 0
-0.00756926 -0.109132 0
-0.00269269 -0.0891033 0
-0.000727524 -0.0862647 0
-0.0092496 -0.0657814 0
-0.00891437 -0.0608703 0
-0.00950603 -0.0517346 0
-0.00664822 -0.0435418 0
-0.00404074 -0.0561658 0
-0.0136679 -0.0434072 0
-0.0171487 -0.0306263 0
-0.00882002 -0.0072639 0
-0.00717727 -0.00836573 0
-0.00582579 0.00139391 0
-0.00350486 0.00556697 0
-0.00203456 0.023058 0
-0.00369312 0.0237531 0
-0.00639267 0.0383739 0
-0.00186445 0.0417543 0
0.0013296 0.0394186 0
0.00435557 0.0454564 0
0.0032678 0.0446622 0
0.00146146 0.0408182 0
0.000774576 0.0578136 0
0.00492547 0.0651515 0
0.00572332 0.062938 0
0.00870974 0.0667261 0
0.00767703 0.0647773 0
0.00815793 0.0581239 0
0.00811421 0.0685011 0
0.0153718 0.0710891 0
0.0101394 0.0697409 0
0.00833642 0.0665961 0
0.00764431 0.0744885 0
0.00440996 0.0745827 0
0.00193553 0.0706462 0
0.00300032 0.0751432 0
0.00430591 0.0768911 0
0.00544458 0.0735422 0
0.00296366 0.0631726 0
0 0.0624466 0
10.0039 -0.247541 0
9.80059 0.411726 0
9.20667 0.302934 0
7.80926 -0.285414 0
5.01802 -0.416562 0
2.42422 0.0259682 0
0.282029 -2.98616 0
-0.0791219 -2.89852 0
0.833529 -1.97524 0
0.597229 -1.26009 0
2.28671 -0.911215 0
4.81718 -0.601757 0
6.38282 -0.420737 0
7.22654 -0.345229 0
8.75114 -0.307006 0
9.1898 -0.00622841 0
9.2712 -0.229442 0
9.51797 -0.504095 0
9.5847 -0.492233 0
9.36238 -0.0901776 0
9.45259 0.0308118 0
9.36388 -0.0773023 0
9.67001 -0.356851 0
9.93983 -1.16432 0
10.0217 -1.0123 0
10.4783 -0.767997 0
10.6593 -0.948558 0
10.694 -0.472285 0
10.6447 -0.0538056 0
10.564 0.0190904 0
10.558 -0.00554847 0
10.545 -0.0549925 0
10.5248 -0.0910198 0
10.3615 -0.159365 0
10.2429 -0.253079 0
10.1876 -0.29507 0
10.1472 -0.146156 0
10.0829 -0.072652 0
9.97473 0.0755261 0
10.0455 0.0325357 0
10.2751 -0.124178 0
10.2916 -0.36218 0
10.2902 -0.429018 0
10.3649 -0.383887 0
10.457 -0.431241 0
10.4627 -0.626764 0
10.513 -0.697776 0
10.5468 -0.856936 0
10.7386 -1.0137 0
10.7307 -1.07373 0
10.7432 -1.04384 0
10.8108 -1.12309 0
10.8384 -1.15028 0
10.8415 -1.12807 0
10.8476 -1.13614 0
10.9117 -1.23731 0
10.9038 -1.327 0
10.8404 -1.28873 0
10.8275 -1.32888 0
10.803 -1.43019 0
10.7943 -1.50764 0
10.8013 -1.55686 0
10.7971 -1.56945 0
10.7427 -1.50711 0
10.3678 -1.45651 0
10.0156 -1.35551 0
9.7305 -0.965469 0
9.39548 -0.274454 0
8.91112 0.162158 0
8.53749 0.230442 0
8.35488 0.116011 0
8.20399 0.208473 0
7.91224 0.383211 0
7.69745 0.472855 0
7.40705 0.390583 0
6.90146 0.564881 0
7.00743 0.37801 0
6.81309 0.572699 0
6.42965 0.556288 0
6.84675 0.748517 0
6.50734 0.498972 0
6.79824 0.581384 0
6.38461 0.704635 0
7.10051 0.864661 0
5.87868 2.10537 0
1.11051 3.31387 0
0.994331 -0.947625 0
1.20685 -0.390524 0
0.344703 2.53303 0
-0.435953 2.24002 0
-0.138673 1.55899 0
-0.046852 1.20951 0
-0.0542881 1.01035 0
-0.0555319 0.811407 0
0.0617541 0.775633 0
-0.0358835 0.781979 0
0.0343763 0.831069 0
0.0428287 0.635584 0
-0.0315023 0.418279 0
-0.0470554 0.284465 0
0.0256162 0.282932 0
-0.0493908 0.141872 0
0.0743716 0.352949 0
0.354104 0.39639 0
0.274635 0.346319 0
0.2087 0.0968893 0
0.357187 0.0583273 0
0.15856 0.0367881 0
0.0161699 0.0480212 0
0.0383237 0.00379832 0
0.018724 0.0334087 0
0.0116206 0.062333 0
-0.027813 -0.0417327 0
0.0255783 -0.0376748 0
-0.0831337 -0.040965 0
-0.0726479 0.0264917 0
-0.00766869 -0.0625391 0
0.0570662 -0.0707977 0
0.0166905 -0.0243908 0
-0.0220279 -0.0099324 0
-0.0225075 -0.0228877 0
-0.0369899 0.036077 0
-0.020701 0.0608052 0
-0.0053679 0.106718 0
-0.0214878 0.138678 0
-0.0172067 0.127399 0
-0.0348157 0.115747 0
0.0316159 0.165242 0
0.111444 0.154556 0
0.0598081 0.13437 0
0.0137559 0.160552 0
0.0362383 0.112607 0
0.0375829 0.157518 0
0.00889674 0.126467 0
0.00317822 0.083158 0
-0.0045535 0.117606 0
0.0108933 0.11089 0
0.0136428 0.0690088 0
0.0239953 0.108295 0
0.0293843 0.102619 0
-0.0363027 0.107876 0
-0.011631 0.0878753 0
0.0114092 0.0636458 0
-0.00705543 0.0655978 0
-0.00369103 0.0442217 0
0.0143159 -0.0465645 0
0.0171453 -0.167252 0
-0.00512893 -0.220937 0
-0.0256444 -0.241988 0
-0.0181747 -0.242079 0
-0.0189856 -0.241957 0
-0.024187 -0.216263 0
-0.0222435 -0.219531 0
-0.0194204 -0.19762 0
-0.0164547 -0.181308 0
-0.00369544 -0.170377 0
-0.00240718 -0.158867 0
0.000901744 -0.152758 0
0.00198292 -0.143627 0
0.0020874 -0.130291 0
0.00151299 -0.122628 0
0.00898167 -0.110995 0
0.00356371 -0.0908559 0
0.00435967 -0.0852409 0
0.00403665 -0.0762804 0
0.00278948 -0.0623363 0
0.0025921 -0.0582103 0
-0.000839968 -0.0496203 0
-0.00100544 -0.0471484 0
0.000467455 -0.0437578 0
0.000582335 -0.025457 0
-0.000226715 -0.0108692 0
0.0011687 -0.00559183 0
0.00183625 0.00349157 0
0.00409662 0.00780103 0
0.00264774 0.0156893 0
0.00339126 0.0245518 0
0.00466371 0.0380388 0
0.00730431 0.0412461 0
0.00610999 0.0438585 0
0.00470301 0.0389955 0
0.00631367 0.0424937 0
0.00959527 0.0448921 0
0.00963075 0.053835 0
0.00602919 0.0603879 0
0.0105161 0.0582362 0
0.00747191 0.0602006 0
0.00727071 0.0592016 0
0.0121457 0.0632953 0
0.00953203 0.0719757 0
0.0120373 0.0692904 0
0.0106573 0.0713523 0
0.0100421 0.0703622 0
0.00647129 0.0733242 0
0.00474908 0.0726884 0
0.00265304 0.0711166 0
0.0034799 0.0706379 0
0.00236668 0.0741237 0
0.00226668 0.0717575 0
0.00101755 0.0639992 0
0 0.066842 0
10.0039 -1.08797 0
11.153 -0.0223792 0
7.4586 -0.204364 0
6.19646 -0.475055 0
6.24973 0.459517 0
4.27397 -1.8234 0
2.51757 -1.50509 0
1.84113 -1.18134 0
1.43335 -1.00087 0
1.255 -0.534409 0
1.44525 -0.79238 0
3.08464 -0.652963 0
5.43899 -0.453052 0
6.77862 -0.301178 0
7.92832 -0.213916 0
8.55687 -0.144621 0
9.07589 -0.231515 0
9.03897 -0.0325937 0
9.40971 -0.0716929 0
9.28004 -0.0342157 0
9.60095 -0.0397059 0
9.80652 -0.02504 0
9.62149 -0.267277 0
9.68479 -0.634838 0
10.003 -0.764275 0
10.4478 -0.767028 0
10.7961 -0.63588 0
10.6588 -0.385068 0
10.6219 -0.052662 0
10.7998 -0.0777668 0
10.6704 -0.0875096 0
10.6062 -0.0905262 0
10.5648 -0.118241 0
10.5218 -0.214551 0
10.5181 -0.280693 0
10.4182 -0.267377 0
10.3983 -0.190807 0
10.3147 -0.385285 0
10.1827 -0.0872852 0
10.2389 -0.00865146 0
10.3971 -0.146364 0
10.4466 -0.292856 0
10.4452 -0.25391 0
10.5488 -0.413467 0
10.5789 -0.471352 0
10.5589 -0.773064 0
10.5277 -0.66533 0
10.5736 -0.798362 0
10.7284 -1.00347 0
10.7537 -1.04869 0
10.76 -1.05566 0
10.7767 -1.12838 0
10.832 -1.11665 0
10.8738 -1.13267 0
10.8217 -1.16379 0
10.7692 -1.21051 0
10.8152 -1.24374 0
10.8059 -1.29522 0
10.7801 -1.33646 0
10.7454 -1.39509 0
10.7437 -1.47931 0
10.7334 -1.44131 0
10.6651 -1.5627 0
10.5365 -1.42845 0
10.2117 -1.47147 0
9.95014 -1.3947 0
9.73564 -1.01573 0
9.39796 -0.482181 0
9.04885 -0.108759 0
8.70717 0.0285864 0
8.46787 0.118093 0
7.69094 0.18835 0
6.81017 0.368207 0
6.3651 0.466243 0
5.63025 0.65098 0
4.67865 0.735869 0
4.2874 0.643587 0
4.26145 0.701174 0
4.20353 0.688959 0
3.8681 0.82014 0
3.64347 0.864384 0
4.3392 0.731018 0
4.39433 0.624357 0
4.55427 0.841533 0
3.52337 0.991586 0
2.50684 0.636467 0
1.80522 1.37575 0
0.340875 1.83838 0
0.0117177 1.6294 0
-0.245064 1.92015 0
-0.836691 1.76106 0
-0.165101 1.55569 0
-0.224475 0.8155 0
-0.418873 0.91667 0
-0.251741 0.985214 0
-0.0939126 0.723961 0
0.0160312 0.309692 0
-0.104652 0.522453 0
-0.210322 0.590363 0
-0.208664 0.582236 0
-0.212027 0.547363 0
-0.190616 0.481871 0
0.0968004 0.569116 0
0.311901 0.503064 0
0.205158 0.391483 0
0.324095 0.180716 0
0.31567 0.0869378 0
0.0807811 0.0600354 0
0.0443235 0.127104 0
-0.00880875 0.0918053 0
0.0773408 0.0754685 0
-0.0862233 0.00501818 0
-0.0361235 -0.0647097 0
-0.00939541 -0.00811117 0
-0.0503469 0.0637489 0
-0.0748752 0.0524903 0
-0.0319138 0.0471876 0
-0.0502769 -0.0247933 0
-0.174079 -0.00570528 0
-0.105698 -0.0122913 0
-0.047088 -0.0176884 0
-0.0114512 0.0262774 0
-0.04441 0.0596129 0
-0.00630622 0.136201 0
0.0156608 0.103237 0
-0.0119405 0.0769413 0
0.0931839 0.0727502 0
0.147671 0.0775688 0
0.105625 0.0685886 0
0.0889835 0.052433 0
0.0609433 0.0558308 0
-0.00269392 0.0631121 0
0.00554032 0.0824983 0
0.0163577 0.0583345 0
0.00619853 0.030754 0
0.0184628 0.0274017 0
0.0365627 0.0258777 0
0.0252203 0.0361571 0
0.0242393 0.0148577 0
0.028471 0.00427343 0
0.00864024 0.032346 0
-0.0158779 0.0562599 0
-0.00942 0.013582 0
-0.00877504 0.0364052 0
-0.00323793 0.00687838 0
0.0157821 0.0295372 0
0.0184318 -0.0038256 0
0.00603101 -0.0676475 0
0.000556563 -0.0987781 0
-0.00929635 -0.117071 0
-0.0125789 -0.127998 0
-0.0100846 -0.148543 0
-0.000943179 -0.150058 0
-0.0044739 -0.153585 0
-0.000855303 -0.14904 0
0.00213794 -0.149343 0
0.0127628 -0.143514 0
0.0197674 -0.144057 0
0.0174606 -0.142081 0
0.0127414 -0.133376 0
0.00873365 -0.120338 0
0.0120264 -0.114269 0
0.0134047 -0.0965453 0
0.0165506 -0.0793605 0
0.0187448 -0.0701735 0
0.0159476 -0.0646851 0
0.0139585 -0.0557325 0
0.0190411 -0.0453808 0
0.011758 -0.0434843 0
0.0128684 -0.0375713 0
0.0143284 -0.0235887 0
0.0101623 -0.00838478 0
0.00886588 -0.00485357 0
0.00838692 0.00285778 0
0.00800682 0.00712213 0
0.00973905 0.0182462 0
0.0154898 0.0148623 0
0.0163617 0.0328675 0
0.0122141 0.030745 0
0.0133105 0.0369427 0
0.0100563 0.0355429 0
0.0102652 0.0359718 0
0.0114713 0.041806 0
0.0148103 0.0456512 0
0.0144332 0.0516569 0
0.0159333 0.0601065 0
0.0135684 0.0529852 0
0.0142501 0.0608351 0
0.0137366 0.0614173 0
0.00977938 0.0672376 0
0.00502526 0.0675675 0
0.00565657 0.0674783 0
0.0116914 0.0727657 0
0.00836295 0.0703381 0
0.00717043 0.0706696 0
0.00519718 0.0679833 0
0.0033024 0.0688983 0
0.00122896 0.0684075 0
-0.000380697 0.0637869 0
-0.000793996 0.0673273 0
0 0.0664496 0
10.0039 -0.0316839 0
8.90241 -0.658165 0
8.18377 -0.544035 0
4.55229 0.130745 0
8.43876 -0.120503 0
5.12108 -0.389132 0
2.85269 -0.586515 0
1.62548 -0.773642 0
1.32853 -1.07342 0
1.22486 -1.05438 0
1.0067 -1.02685 0
1.55308 -0.902859 0
3.8657 -0.669841 0
6.47882 -0.369093 0
7.8632 -0.109189 0
8.92795 -0.109642 0
9.54399 0.0269839 0
9.59395 0.0892182 0
9.5528 0.0681303 0
9.62043 0.043347 0
9.69164 -0.0437882 0
9.66074 -0.0721912 0
9.52442 -0.271272 0
9.59207 -0.473629 0
9.99462 -0.523576 0
10.284 -0.4943 0
10.7561 -0.330377 0
10.9936 -0.315669 0
10.8873 -0.130323 0
10.7688 -0.184877 0
10.6796 -0.160576 0
10.6 -0.104571 0
10.5507 -0.16161 0
10.602 -0.169476 0
10.6833 -0.153203 0
10.7491 -0.286901 0
10.5461 -0.245182 0
10.4729 -0.27046 0
10.4516 -0.207451 0
10.33 -0.0280755 0
10.4441 -0.12586 0
10.5516 -0.258122 0
10.7653 -0.20521 0
10.8773 -0.385848 0
10.877 -0.581675 0
10.7696 -0.815661 0
10.6435 -0.724015 0
10.6374 -0.767377 0
10.678 -0.961539 0
10.7307 -0.980161 0
10.7674 -1.05872 0
10.7184 -1.11057 0
10.7407 -1.14647 0
10.7839 -1.13152 0
10.7379 -1.1765 0
10.7546 -1.24223 0
10.7278 -1.28853 0
10.7236 -1.28433 0
10.7094 -1.30595 0
10.6884 -1.33763 0
10.6545 -1.4621 0
10.6593 -1.50001 0
10.6676 -1.40252 0
10.4626 -1.33551 0
10.0333 -1.40443 0
9.81828 -1.27379 0
9.70881 -0.931628 0
9.30835 -0.42936 0
8.74614 -0.147797 0
8.33145 0.223011 0
7.70066 0.216704 0
6.77237 0.236136 0
5.84544 0.471978 0
4.96192 0.590267 0
4.05546 0.704841 0
3.18638 0.748406 0
2.93574 0.748449 0
2.49989 0.822784 0
1.28469 0.834381 0
0.575784 0.929283 0
0.698222 0.897482 0
1.36128 0.776643 0
1.16828 0.689218 0
1.06563 0.572464 0
0.0835957 0.883458 0
-0.442428 0.149448 0
0.128881 0.292854 0
-0.422971 0.501211 0
-0.76911 0.378663 0
-0.118817 0.711983 0
0.478802 0.586946 0
-0.0763011 0.665747 0
-0.062201 0.1997 0
-0.405194 -0.171846 0
-0.518663 0.55628 0
-0.20009 0.080848 0
-0.311637 -0.0552523 0
-0.360502 0.320306 0
-0.311116 0.899161 0
-0.380206 1.00881 0
-0.365746 1.01236 0
-0.126698 1.12814 0
0.154195 1.23964 0
0.248565 0.88584 0
0.301208 0.735108 0
0.241448 0.224503 0
-0.0093448 0.25659 0
0.0517713 0.109836 0
-0.0676386 0.207836 0
-0.0385936 0.211752 0
-0.0146619 0.203898 0
-0.0456306 0.0998305 0
-0.00139046 0.0678736 0
-0.0345509 0.0869997 0
-0.0267462 0.0428605 0
-0.0121593 0.100516 0
-0.145658 -0.0124083 0
-0.129899 -0.0603334 0
-0.107524 -0.0562535 0
-0.0762507 -0.0622778 0
-0.0612053 0.0136263 0
-0.0683394 -0.0228673 0
-0.0473421 0.044788 0
-0.0240388 0.163128 0
0.000283508 0.0965959 0
-0.00715303 0.0563791 0
-0.0160096 0.0376244 0
0.103406 0.0825174 0
0.101581 0.0779662 0
0.0703414 0.0116289 0
0.0210164 0.0627683 0
0.000135753 0.0286804 0
-0.0155715 0.0805999 0
-0.0100968 0.0606039 0
0.0157102 0.055333 0
0.0287768 0.0244744 0
0.0238303 0.0151429 0
0.0301844 0.0245029 0
0.0156165 -0.00568623 0
0.00763898 -0.0400959 0
0.00511599 -0.0271419 0
0.00087275 -0.00134214 0
0.0118063 -0.00551261 0
0.0294926 -0.00637478 0
0.0343807 -0.0100466 0
0.0349899 0.0276104 0
0.0308599 0.00914062 0
0.0203746 0.0185371 0
0.013481 0.0220496 0
0.0127412 -0.00460461 0
0.014613 -0.0165501 0
0.0182513 -0.0187366 0
0.0100899 -0.0236848 0
0.0108608 -0.0438933 0
0.0195614 -0.0770271 0
0.0153109 -0.111408 0
0.0264941 -0.1283 0
0.028645 -0.136663 0
0.0273686 -0.109151 0
0.0268659 -0.127645 0
0.0347797 -0.114088 0
0.0344034 -0.103588 0
0.0330905 -0.0983554 0
0.0256722 -0.0813795 0
0.0209119 -0.0733491 0
0.0194765 -0.0684112 0
0.0274117 -0.0557602 0
0.0224797 -0.0511183 0
0.0198198 -0.0386794 0
0.0183927 -0.029841 0
0.0217298 -0.0246109 0
0.0202074 -0.0111834 0
0.0238864 -0.00432479 0
0.0240168 -0.00172178 0
0.0255095 0.00646464 0
0.0234824 0.0166476 0
0.0228793 0.0168368 0
0.0204322 0.0243738 0
0.0195772 0.0288871 0
0.0224601 0.0338273 0
0.0178451 0.0362294 0
0.0177981 0.0371229 0
0.0211959 0.0419893 0
0.0226447 0.0380937 0
0.0199444 0.0442985 0
0.0165986 0.048843 0
0.0155468 0.0555184 0
0.0138653 0.0620627 0
0.00883952 0.0609119 0
0.00992961 0.0620275 0
0.00525342 0.0643065 0
0.00497671 0.0644988 0
0.0114378 0.0710222 0
0.012644 0.0694079 0
0.0117235 0.0647894 0
0.00888588 0.06566 0
0.00436202 0.0634729 0
0.00246665 0.0614695 0
0.000825706 0.060446 0
-0.000857772 0.0659088 0
0 0.0633651 0
10.0039 -0.488598 0
8.97913 -0.690249 0
9.45229 -0.200079 0
10.4273 0.409208 0
9.25783 0.012056 0
5.152 -0.166838 0
2.63635 -0.126201 0
1.38432 -0.790259 0
0.853744 -1.11936 0
0.507147 -0.974421 0
0.452388 -0.828691 0
0.744519 -0.743635 0
2.67429 -0.497583 0
5.70663 -0.285034 0
7.89759 -0.118458 0
8.87506 0.21321 0
9.40768 0.288087 0
9.49011 0.366647 0
9.47463 0.35781 0
9.35486 0.0304023 0
9.78474 -0.00748399 0
9.68634 -0.0749885 0
9.6335 -0.259843 0
9.71672 -0.168325 0
9.95925 -0.0475848 0
10.2824 -0.0195625 0
10.5318 -0.132999 0
10.773 -0.315526 0
10.7272 -0.275864 0
10.6646 -0.258246 0
10.5887 -0.225879 0
10.5397 -0.145585 0
10.5603 -0.142317 0
10.721 -0.228624 0
10.7965 -0.173741 0
10.5201 -0.219829 0
10.3115 -0.346553 0
10.4319 -0.325055 0
10.3994 -0.275636 0
10.4121 -0.11672 0
10.4832 -0.0945923 0
10.6358 -0.25282 0
10.7678 -0.325163 0
10.6413 -0.37688 0
10.5774 -0.708034 0
10.523 -0.781999 0
10.6926 -0.778225 0
10.7308 -0.721361 0
10.6465 -0.844549 0
10.6503 -0.940621 0
10.6639 -1.04889 0
10.6598 -1.14292 0
10.7202 -1.11827 0
10.741 -1.12982 0
10.692 -1.1873 0
10.6688 -1.22632 0
10.6691 -1.265 0
10.6603 -1.31153 0
10.6931 -1.31089 0
10.6399 -1.38901 0
10.5953 -1.36223 0
10.5745 -1.36417 0
10.4547 -1.3868 0
10.0955 -1.31397 0
9.84832 -1.29567 0
9.6234 -1.184 0
9.34208 -0.875384 0
8.95128 -0.378766 0
8.35002 0.0442619 0
7.71097 0.155602 0
6.80803 0.275795 0
6.15199 0.359014 0
5.3312 0.468381 0
4.58723 0.740892 0
3.85051 0.771722 0
3.25739 0.783166 0
2.34776 0.155658 0
1.44678 0.625628 0
0.742822 0.532871 0
0.296317 0.841253 0
0.0815698 0.32377 0
0.386625 0.087665 0
-0.142638 0.308783 0
-0.433497 0.436821 0
-0.948186 0.476633 0
0.124519 -0.113323 0
0.140252 -0.000785404 0
-0.346003 0.0934213 0
-0.603592 0.320833 0
-0.798571 0.397851 0
-0.98887 0.467844 0
-1.14416 0.109978 0
-1.10017 0.339777 0
-0.830047 -0.0485039 0
-0.751712 0.239845 0
-0.619815 0.261418 0
-0.532013 0.232626 0
-0.866285 0.17483 0
-0.782218 1.17371 0
-0.861497 1.8001 0
-0.621486 2.68587 0
-0.248767 3.24529 0
0.549427 2.68823 0
0.680946 1.53444 0
0.546756 0.273373 0
0.158656 0.163378 0
0.012941 0.111451 0
-0.15024 -0.0572482 0
-0.289896 0.11924 0
-0.104879 -0.0184875 0
-0.08245 0.0460425 0
-0.0376568 0.394954 0
-0.0875073 0.319922 0
-0.124094 0.0379384 0
-0.036625 -0.0188656 0
-0.0181652 -0.0188805 0
-0.0659294 -0.0264359 0
-0.181649 -0.0253244 0
-0.149106 -0.0498237 0
-0.0713625 -0.0320637 0
-0.0409799 0.0010106 0
-0.0448651 0.098507 0
-0.0786679 0.154006 0
-0.0898298 0.11028 0
-0.0144218 0.103522 0
0.0194774 0.0673884 0
0.00535774 0.0373088 0
0.0147177 0.0771649 0
0.00618724 0.0339165 0
0.000102322 0.0257963 0
0.0163753 0.0156244 0
-0.0235439 0.0524075 0
-0.0070245 0.0700673 0
0.0145884 0.0865573 0
0.0263969 0.102428 0
0.0504082 0.0563725 0
0.0339524 0.0188543 0
0.0304072 0.00679537 0
0.033033 0.00783572 0
0.0178589 -0.0272178 0
0.0271976 -0.0345799 0
0.0412733 0.00534254 0
0.0609391 -0.000528286 0
0.0733174 -0.0144361 0
0.0716828 0.00258068 0
0.0454811 -0.00387552 0
0.0554681 0.0132894 0
0.0537735 0.00819657 0
0.044483 0.0150482 0
0.0399588 -0.002272 0
0.0422508 0.00497371 0
0.0344504 0.00711083 0
0.0348694 0.0118776 0
0.0378101 -0.013818 0
0.0391757 -0.0316509 0
0.0425306 -0.0319816 0
0.0398804 -0.06676 0
0.0413303 -0.0689593 0
0.0464667 -0.0452251 0
0.0419603 -0.0547159 0
0.0453156 -0.0658619 0
0.0427289 -0.0920356 0
0.0427142 -0.104783 0
0.0363937 -0.0805227 0
0.0367356 -0.0772297 0
0.0322619 -0.0666583 0
0.0301114 -0.0575555 0
0.0331297 -0.0513279 0
0.0360259 -0.0407527 0
0.0267059 -0.0272353 0
0.0368975 -0.0298249 0
0.035023 -0.0132193 0
0.0370166 -0.00461899 0
0.0347499 0.00225294 0
0.0331067 0.00790295 0
0.0292472 0.0163401 0
0.0263464 0.019111 0
0.0302903 0.0185814 0
0.0279107 0.0253783 0
0.0293696 0.0329273 0
0.0254972 0.0305828 0
0.0289932 0.0359781 0
0.0294572 0.0449142 0
0.0281609 0.041062 0
0.0234162 0.0470402 0
0.022309 0.0551406 0
0.0197934 0.0569398 0
0.015899 0.0599736 0
0.0152886 0.0606764 0
0.0139412 0.0568195 0
0.0104716 0.0619103 0
0.00813118 0.0642225 0
0.0141152 0.0677134 0
0.0129203 0.0660851 0
0.0112127 0.0619833 0
0.00928147 0.0630829 0
0.00698175 0.064403 0
0.00556254 0.0595834 0
0.00271155 0.0593158 0
0.00114822 0.0594637 0
0 0.0622083 0
10.0039 0.332932 0
10.2818 -0.123875 0
10.1823 0.126845 0
10.2763 0.123836 0
8.50772 -0.0741795 0
4.59418 -0.0741237 0
1.96177 -0.109222 0
1.08243 -0.652083 0
0.520044 -0.766475 0
0.175306 -0.624771 0
0.0501121 -0.565079 0
0.136491 -0.564101 0
1.97809 -0.284833 0
5.05659 -0.101608 0
7.75495 -0.113838 0
8.99862 0.155564 0
9.44738 0.40185 0
9.46104 0.171055 0
9.44654 0.141554 0
9.45862 0.208071 0
9.62644 0.0570473 0
9.72126 -0.0465205 0
9.81003 -0.0468824 0
9.91747 0.063695 0
10.0454 0.230826 0
10.0763 0.214611 0
10.1746 0.0298999 0
10.378 -0.189293 0
10.5502 -0.292625 0
10.5847 -0.278469 0
10.5461 -0.320904 0
10.5491 -0.227425 0
10.5067 -0.140136 0
10.6472 -0.127638 0
10.7362 -0.215349 0
10.6171 -0.348533 0
10.4515 -0.382866 0
10.4761 -0.304837 0
10.4667 -0.169608 0
10.4637 -0.15132 0
10.454 -0.162013 0
10.4766 -0.115625 0
10.7191 -0.367182 0
10.7517 -0.563016 0
10.7335 -0.631652 0
10.6941 -0.71914 0
10.6137 -0.733667 0
10.5804 -0.829189 0
10.5253 -0.866706 0
10.5113 -0.958357 0
10.5321 -1.0836 0
10.6827 -1.13823 0
10.6777 -1.127 0
10.7152 -1.17959 0
10.6855 -1.20893 0
10.6622 -1.26169 0
10.6857 -1.26408 0
10.6656 -1.28742 0
10.5961 -1.3344 0
10.5173 -1.35693 0
10.5021 -1.37628 0
10.4774 -1.35088 0
10.4357 -1.29834 0
9.99187 -1.35291 0
9.66556 -1.27887 0
9.45437 -1.22813 0
9.09268 -0.82697 0
8.55511 -0.246512 0
7.8331 0.156339 0
6.85067 0.19027 0
6.31597 0.14125 0
5.91618 0.0438807 0
5.23338 0.368283 0
4.81279 0.295028 0
4.45635 0.00982984 0
3.20216 -0.0170904 0
2.30382 0.406609 0
2.13342 0.529544 0
1.68018 0.483659 0
0.90435 -0.224606 0
0.528658 0.270226 0
0.122409 0.512437 0
-0.188302 0.363017 0
0.260814 0.399116 0
-0.427443 0.111539 0
-0.0254858 0.411842 0
0.0911378 -0.0598798 0
-0.0382605 -0.338679 0
-0.985563 0.478196 0
-0.130589 0.138431 0
-0.434439 0.0635551 0
-1.91569 0.132398 0
-1.46094 -0.142853 0
-1.57115 -0.573555 0
-1.50495 -0.572379 0
-1.07577 0.231886 0
-1.16203 0.27146 0
-1.55891 0.854348 0
-1.83973 2.05641 0
-1.60188 3.08608 0
-0.672439 4.61727 0
-0.0462025 3.52606 0
1.05055 2.02785 0
0.872546 0.491637 0
0.732509 0.110619 0
-0.0780818 0.175696 0
-0.70042 -0.260522 0
-0.874068 -0.380117 0
-0.899382 0.134927 0
-0.485361 0.333389 0
-0.420981 0.271141 0
-0.356877 0.0283279 0
-0.278534 0.304201 0
-0.189263 -0.0662668 0
-0.280954 -0.0442793 0
-0.237468 -0.0719032 0
-0.265644 -0.14166 0
-0.290468 -0.0679784 0
-0.167173 -0.0368724 0
-0.153603 0.0450945 0
-0.0873436 0.129858 0
-0.0602851 0.213514 0
-0.0448334 0.29971 0
-0.0230178 0.194021 0
0.0144845 0.211607 0
0.048372 0.190143 0
0.0804382 0.121875 0
0.00525339 0.0765951 0
-0.0307333 0.0183843 0
-0.0270029 0.0645542 0
-0.0411048 0.0877139 0
-0.0277545 0.0653067 0
0.00173109 0.168268 0
0.0135034 0.065983 0
0.0214529 0.0845479 0
0.0669595 0.0456444 0
0.0725546 0.0514737 0
0.0498251 0.0317346 0
0.0447054 0.0184307 0
0.0333775 0.00880959 0
0.0252401 0.0102559 0
0.0601838 0.00261974 0
0.0594592 0.00177823 0
0.0634414 0.00451403 0
0.0692832 0.00884586 0
0.0761758 0.0151348 0
0.0715924 -0.0127692 0
0.0673674 -0.00561704 0
0.0812776 -0.0123144 0
0.0680155 -0.0018274 0
0.060199 -0.0014315 0
0.0567747 -0.00693271 0
0.0548939 -0.0161561 0
0.0538745 -0.00756413 0
0.0592822 -0.0218602 0
0.0613578 0.0158782 0
0.0556838 0.00962955 0
0.0533488 -0.0194895 0
0.0534464 -0.0276481 0
0.0499973 -0.02065 0
0.060539 -0.0023624 0
0.0590295 -0.0409057 0
0.0495316 -0.0965572 0
0.0469449 -0.0803223 0
0.0438689 -0.0789584 0
0.0434238 -0.0719628 0
0.0406151 -0.0565808 0
0.0408151 -0.0617394 0
0.0362597 -0.0444568 0
0.0424797 -0.0324817 0
0.0449039 -0.0300275 0
0.0451601 -0.0158187 0
0.0508177 -0.00885815 0
0.0480519 -0.000953351 0
0.0414726 0.0118305 0
0.0398355 0.017693 0
0.0328118 0.0216993 0
0.0319646 0.0237454 0
0.0377632 0.0288133 0
0.036595 0.0285321 0
0.0349897 0.0351996 0
0.0291046 0.0378761 0
0.0277958 0.0469635 0
0.030999 0.0451468 0
0.0306543 0.0487728 0
0.027935 0.0486617 0
0.021375 0.0567682 0
0.0167876 0.0560184 0
0.0161694 0.0590768 0
0.0163327 0.0595474 0
0.0152293 0.0615057 0
0.0152636 0.0610462 0
0.0140644 0.0631922 0
0.0134284 0.0625739 0
0.0119494 0.0622382 0
0.00847398 0.0628361 0
0.00541247 0.0613685 0
0.00380211 0.0602521 0
0.00321281 0.0585521 0
0.00100656 0.0602958 0
0 0.064953 0
10.0039 0.14681 0
9.14169 0.331068 0
8.57532 0.313442 0
8.7873 -0.200294 0
7.81937 0.0206105 0
3.99584 -0.036005 0
1.33433 -0.280481 0
0.807919 -0.306833 0
0.336642 -0.390403 0
0.0906476 -0.366015 0
0.362806 -0.252786 0
-0.346681 -0.365742 0
1.13048 -0.567636 0
4.57318 -0.3208 0
7.69176 -0.0837661 0
9.22247 0.202169 0
9.54967 0.349901 0
9.60182 0.495247 0
9.72273 0.25728 0
9.69871 0.236036 0
9.71308 0.178387 0
9.84967 -0.0307995 0
9.96098 0.0604533 0
10.0883 0.2115 0
10.1007 0.158206 0
10.0197 0.107546 0
10.0149 0.0161329 0
10.1944 -0.101618 0
10.3889 -0.232985 0
10.4561 -0.286722 0
10.4952 -0.348876 0
10.4747 -0.144643 0
10.4805 -0.108481 0
10.5378 -0.0654778 0
10.5656 -0.19266 0
10.4161 -0.347576 0
10.3971 -0.454199 0
10.3793 -0.210827 0
10.3634 -0.22244 0
10.3482 -0.294966 0
10.3144 -0.120412 0
10.3975 -0.103762 0
10.4356 -0.332998 0
10.5652 -0.669116 0
10.5353 -0.697698 0
10.6127 -0.858043 0
10.5466 -0.867553 0
10.498 -0.902491 0
10.4871 -0.84431 0
10.5121 -0.866992 0
10.545 -1.00378 0
10.7084 -1.14636 0
10.6787 -1.15646 0
10.5777 -1.1844 0
10.5826 -1.24682 0
10.6219 -1.21547 0
10.626 -1.21423 0
10.6139 -1.27354 0
10.5965 -1.30628 0
10.4661 -1.34685 0
10.4328 -1.34493 0
10.3815 -1.31294 0
10.201 -1.32008 0
9.88674 -1.31305 0
9.67414 -1.33102 0
9.30627 -1.12002 0
8.75679 -0.844219 0
7.91363 -0.0989906 0
7.05542 0.260036 0
6.5718 0.17169 0
6.36752 -0.152608 0
5.88848 -0.11202 0
5.38986 -0.0181961 0
4.74522 -0.00631046 0
4.02442 0.101686 0
3.52546 0.00214726 0
2.66736 0.628918 0
1.83948 0.632027 0
1.74994 0.492738 0
1.43133 0.447466 0
0.585258 0.464614 0
0.565073 0.676126 0
0.395705 0.258385 0
0.187123 -0.121919 0
-0.345427 0.177709 0
-0.184528 -0.0843528 0
-0.22388 -0.0232236 0
-0.267299 0.291735 0
0.0268477 0.462703 0
-0.339785 0.0255404 0
-0.119216 0.0515955 0
-0.653879 -0.657211 0
-0.99369 -0.840015 0
-0.48541 -0.920408 0
-0.598439 -0.609498 0
-1.91248 0.267825 0
-2.22036 0.509343 0
-2.71477 1.10219 0
-3.5859 2.72285 0
-2.42699 4.43889 0
-0.505359 4.06334 0
-0.942268 1.2754 0
-1.09528 3.2802 0
-0.921717 1.79867 0
-1.65024 -2.1437 0
-4.88199 -2.29497 0
-5.97839 -2.51909 0
-5.27702 -1.19328 0
-4.19968 0.137522 0
-2.74023 1.26562 0
-1.62455 0.661702 0
-1.3096 0.559734 0
-0.725152 0.16413 0
-0.505089 -0.278297 0
-0.424954 -0.253945 0
-0.479308 -0.276464 0
-0.365828 -0.343727 0
-0.331479 -0.226203 0
-0.31481 -0.0367793 0
-0.304844 0.158382 0
-0.235248 0.35697 0
-0.14925 0.583091 0
-0.0581445 0.727243 0
0.0797037 0.730703 0
0.190046 0.603557 0
0.176582 0.400201 0
0.141341 0.155839 0
0.0835785 0.0434628 0
0.01825 -0.0203654 0
-0.0430485 0.0869943 0
-0.0633227 0.159075 0
-0.020456 0.141387 0
-0.0045278 0.205608 0
-0.0220217 0.112253 0
0.0375204 0.146252 0
0.0228388 0.0999072 0
0.0577048 0.11304 0
0.0573185 0.0952964 0
0.0693989 0.110074 0
0.0722359 0.113333 0
0.0576842 0.0605336 0
0.0505202 0.0418866 0
0.0673523 0.0155788 0
0.048079 0.0111311 0
0.045851 0.00961909 0
0.0451721 0.00735214 0
0.0448255 -0.00597012 0
0.0679962 -0.0167719 0
0.109443 -0.0158526 0
0.104882 -0.00452971 0
0.0901867 -0.00930913 0
0.0727783 -0.00819882 0
0.0835081 -0.00646834 0
0.0741571 -0.011156 0
0.0623466 -0.0143971 0
0.0690869 -0.00567964 0
0.066901 0.00523956 0
0.0704079 -0.0164357 0
0.0748669 -0.0160025 0
0.075422 -0.0118646 0
0.0710036 -0.00403492 0
0.0671763 -0.00509016 0
0.0657135 -0.0406496 0
0.0555222 -0.061828 0
0.050515 -0.0655806 0
0.052641 -0.0754753 0
0.0487288 -0.0594624 0
0.0543977 -0.0602349 0
0.0544745 -0.0444023 0
0.0559059 -0.0326592 0
0.0545993 -0.0380536 0
0.0523994 -0.0211583 0
0.0460986 -0.00750448 0
0.0593929 0.000338879 0
0.0526658 0.00770512 0
0.0500059 0.0192045 0
0.0443965 0.0192445 0
0.0455035 0.0225789 0
0.0455245 0.0304049 0
0.0442512 0.030584 0
0.0441238 0.0358154 0
0.0424435 0.0385756 0
0.0389124 0.045187 0
0.0352118 0.0499671 0
0.032979 0.0461218 0
0.0298199 0.0497335 0
0.025242 0.0516378 0
0.0199939 0.0553347 0
0.0225416 0.0576388 0
0.0187996 0.057578 0
0.0180975 0.0613504 0
0.0146935 0.0584792 0
0.0116099 0.0620664 0
0.0121726 0.0640173 0
0.00849805 0.0595263 0
0.0048289 0.0605921 0
0.00632073 0.0626314 0
0.00306553 0.0607926 0
0.00171395 0.0589571 0
0.00105035 0.0565702 0
0 0.0637144 0
10.0039 -0.0469202 0
10.795 -0.0202925 0
7.27651 -0.092583 0
8.5542 -0.0295808 0
7.16187 0.208904 0
3.68568 0.239069 0
1.28375 0.314861 0
0.668421 0.231898 0