<?xml version="1.0"?>
<VTKFile type="StructuredGrid"  version="0.1" byte_order="LittleEndian" compressor="vtkZLibDataCompressor">
  <StructuredGrid WholeExtent="0 200 0 20 0 0">
    <Piece Extent="0 200 0 20 0 0">
      <PointData Vectors="Velocity">
        <DataArray type="Float32" Name="Velocity" NumberOfComponents="3" format="ascii">
10.0039 -0.187781 0
10.5233 -0.148821 0
9.93075 -0.129975 0
9.49328 -0.133972 0
9.90555 -0.0192869 0
9.81423 -0.0969505 0
10.3298 -0.202691 0
10.3031 -0.0414501 0
10.2926 -0.369454 0
9.23265 -0.460969 0
8.84358 0.0265429 0
8.63656 0.255295 0
8.26601 0.205617 0
9.1748 0.425377 0
8.74913 0.294669 0
7.57512 0.132616 0
7.25034 0.323555 0
6.71831 -0.145265 0
6.77148 0.829843 0
6.09904 0.321892 0
5.46048 0.795525 0
6.65963 1.8248 0
5.74896 1.54102 0
5.14335 0.982961 0
5.46405 0.6789 0
5.13275 0.990553 0
5.15687 0.96012 0
4.63951 0.956209 0
3.40083 0.494844 0
2.16782 0.0852598 0
1.29178 -0.331106 0
0.860837 -0.893266 0
0.423504 -1.10912 0
0.336951 -1.38615 0
0.368694 -1.29372 0
0.469163 -1.39056 0
0.596245 -1.64974 0
0.480579 -1.85298 0
0.338799 -2.05463 0
0.448917 -2.42115 0
0.136245 -2.00633 0
0.177408 -1.99665 0
0.0794442 -2.20364 0
-0.0615088 -1.98947 0
0.00184809 -1.43417 0
0.0784276 -1.26667 0
0.0819963 -0.995655 0
0.31919 -0.544446 0
0.423534 -0.455938 0
0.414216 -0.430112 0
0.52966 -0.202481 0
0.711804 -0.0423437 0
0.941017 -0.0348271 0
1.13476 0.0391747 0
1.09607 0.0106655 0
1.53499 -0.000388075 0
1.702 0.0267074 0
1.63415 0.392781 0
1.55296 0.792 0
1.29484 1.3777 0
1.29796 1.69348 0
1.04891 1.809 0
0.753305 1.64344 0
0.468171 1.09913 0
0.0304824 0.649232 0
-0.2039 0.372656 0
-0.287348 0.390717 0
-0.402466 0.464483 0
-0.362247 0.575609 0
-0.221746 0.852046 0
-0.165694 0.614906 0
-0.181788 0.6695 0
-0.0907414 0.58464 0
-0.111502 0.705108 0
-0.0115607 0.893154 0
0.0485247 0.595112 0
0.0244746 0.668377 0
-0.0631269 0.69934 0
-0.0113132 0.470425 0
-0.15155 0.501564 0
-0.117007 0.692955 0
-0.0755319 0.931619 0
-0.0396239 0.862646 0
-0.0547569 0.934787 0
0.0154977 1.01574 0
0.0801864 0.859405 0
0.132597 0.981202 0
0.230785 0.838978 0
0.118197 0.527193 0
0.0416738 0.58105 0
-0.0139252 0.431974 0
-0.00396898 0.353496 0
0.0944776 0.392627 0
0.0607618 0.380763 0
0.067797 0.342085 0
-0.0221999 0.296534 0
-0.0371744 0.326924 0
-0.165895 0.326144 0
-0.262991 0.319386 0
-0.272049 0.617419 0
-0.301906 0.900045 0
-0.341286 1.06758 0
-0.35625 1.25058 0
-0.286435 1.43436 0
-0.188842 1.59288 0
-0.050688 1.68666 0
0.00907433 1.72653 0
0.0899056 1.79445 0
0.235452 1.85798 0
0.295288 1.74291 0
0.352524 1.72258 0
0.38682 1.572 0
0.405766 1.49008 0
0.387547 1.4554 0
0.538225 1.38111 0
0.573175 1.32899 0
0.524595 1.23445 0
0.477838 1.0119 0
0.492244 0.842414 0
0.437824 0.673986 0
0.341917 0.58525 0
0.268229 0.4883 0
0.198705 0.357668 0
0.10384 0.329188 0
0.058588 0.212913 0
0.0410735 0.328188 0
0.0461048 0.275651 0
0.0716328 0.227848 0
0.0409769 0.167246 0
0.018212 0.1163 0
0.0100619 0.0571388 0
0.010319 0.0389207 0
0.0107524 0.0446814 0
-0.0130591 0.0556269 0
-0.0387036 0.0307118 0
-0.0406286 0.00908259 0
-0.102563 -0.00926066 0
-0.0884204 0.0458442 0
-0.0625894 0.0188218 0
-0.025088 0.0245896 0
-0.0434902 -0.00575135 0
-0.0499519 0.0732218 0
-0.0269988 0.0785814 0
-0.0150432 0.0551545 0
-0.015611 0.0593243 0
-0.00353015 0.0675508 0
0.00677829 0.0587677 0
0.00542335 0.0636118 0
0.0177206 0.0560516 0
0.0127975 0.0398828 0
0.00388314 0.0350187 0
0.0043908 0.0130386 0
-0.00344644 -0.00241605 0
0.0174017 -0.0142866 0
0.018768 -0.0154581 0
0.0179648 -0.00976049 0
0.018034 -0.0175862 0
0.0136962 -0.01655 0
0.0097006 -0.0172441 0
-0.00210882 -0.0135589 0
-0.00519001 -0.0237716 0
0.0171101 -0.0201656 0
0.00678269 -0.0361136 0
-0.00465663 -0.0218087 0
-0.011448 -0.0182208 0
-0.0101609 -0.00821537 0
-0.0106653 -0.0159233 0
-0.0170192 -0.037135 0
-0.0279642 -0.0489698 0
-0.0401183 -0.0402428 0
-0.0397702 -0.0254751 0
-0.0365872 -0.0227335 0
-0.0325125 -0.0124809 0
-0.0282256 -0.0112902 0
-0.0132676 -0.00221807 0
-0.00882456 -0.00126819 0
-0.0022574 -0.0125893 0
-0.0095377 -0.00743513 0
-0.0104664 -0.00751915 0
-0.0085411 -0.00491548 0
-0.00593499 -0.00642971 0
-0.00434117 -0.00609461 0
-0.00278551 -0.00371972 0
-0.0021044 -0.00463625 0
-0.00217347 -0.000912377 0
-0.0014083 -0.00376968 0
-0.000600018 -0.00677905 0
-0.00180629 -0.00381754 0
-0.000623448 -0.000727046 0
-0.000199128 -0.00564648 0
-0.00110819 -0.00123147 0
-0.000154917 -0.00550881 0
-0.00048583 -0.00350958 0
-2.94663e-05 -0.00462623 0
0.000656664 -0.00612386 0
-0.000555161 -0.0101217 0
-0.00162189 -0.00461384 0
-0.000384052 -0.00135932 0
-0.000179133 -0.0012983 0
0.000955708 -0.00636138 0
0 -0.00794847 0
10.0039 0.14746 0
10.1475 -0.269104 0
9.00951 -0.254387 0
9.98592 -0.153101 0
9.01118 -0.0107094 0
9.98869 -0.268972 0
9.85099 -0.127272 0
9.91298 -0.0972608 0
9.03148 -0.198317 0
10.3855 -0.0986937 0
9.93341 0.0383065 0
10.1386 -0.0292522 0
9.28642 0.220127 0
8.67143 0.128909 0
8.20982 -0.0558322 0
8.06726 0.306348 0
7.25514 0.31263 0
7.37392 -0.123563 0
6.64288 0.673875 0
6.65719 0.252076 0
6.64132 0.805854 0
5.87858 1.43316 0
5.46806 1.27907 0
5.43017 1.08902 0
5.46607 0.873792 0
5.32303 1.10319 0
5.04643 0.925925 0
4.27642 0.471813 0
3.06276 0.0824018 0
1.79241 -0.0134516 0
0.945337 -0.537095 0
0.57386 -0.917296 0
0.404686 -0.968841 0
0.318366 -1.30748 0
0.34839 -1.18482 0
0.302278 -1.22877 0
0.350714 -1.55394 0
0.474427 -1.81952 0
0.314186 -2.10513 0
0.334733 -2.28622 0
0.127827 -1.88949 0
0.177244 -1.89909 0
0.109289 -1.92661 0
0.276618 -1.74939 0
0.383661 -1.34017 0
0.449596 -1.1808 0
0.499646 -0.858043 0
0.54239 -0.60299 0
0.599628 -0.468938 0
0.730539 -0.35951 0
0.801591 -0.177618 0
0.885765 0.0461642 0
1.13981 0.0335571 0
1.21523 0.0511484 0
1.3877 0.042424 0
1.57469 0.0562045 0
1.71665 0.238693 0
1.92658 0.477823 0
1.84435 0.700408 0
1.89121 1.35107 0
1.53363 1.39431 0
1.01394 1.44301 0
0.601536 1.14095 0
0.158782 0.646979 0
-0.182139 0.291399 0
-0.313325 0.332063 0
-0.276864 0.422583 0
-0.223553 0.543371 0
-0.155064 0.740583 0
-0.0883106 0.73754 0
-0.0893468 0.757105 0
-0.0536364 0.690547 0
-0.0894178 0.781569 0
0.024878 0.63905 0
-0.0512109 0.6689 0
-0.0442894 0.631308 0
-0.0277497 0.508074 0
-0.0221632 0.559733 0
-0.0824301 0.527492 0
-0.0702717 0.622321 0
-0.0455046 0.585929 0
-0.0528437 0.711411 0
-0.0140977 0.861911 0
0.0135204 0.801815 0
-0.00432888 0.901586 0
0.0201352 0.807539 0
0.0288831 0.847475 0
0.0815275 0.704376 0
0.166221 0.686471 0
0.127005 0.651716 0
0.0500811 0.466902 0
0.0522654 0.38901 0
0.0685776 0.418857 0
0.0996363 0.409671 0
0.0587203 0.299463 0
0.0231187 0.244682 0
0.0208602 0.222357 0
-0.0247387 0.246927 0
-0.0327437 0.286707 0
-0.0871525 0.466297 0
-0.194642 0.716849 0
-0.229006 0.898543 0
-0.23443 1.14719 0
-0.201058 1.30049 0
-0.0939078 1.47362 0
-0.0273193 1.68597 0
0.0391312 1.67611 0
0.147249 1.78426 0
0.274833 1.80717 0
0.382306 1.81495 0
0.407663 1.7136 0
0.431753 1.69673 0
0.474106 1.59156 0
0.433259 1.51938 0
0.434584 1.43285 0
0.467608 1.3481 0
0.439561 1.21532 0
0.453716 0.97195 0
0.41622 0.788504 0
0.299033 0.659638 0
0.296359 0.540284 0
0.19865 0.535583 0
0.119097 0.399084 0
0.103774 0.351298 0
0.0471495 0.297543 0
0.0121435 0.319971 0
0.00443528 0.281973 0
0.0124357 0.167915 0
0.0147405 0.142471 0
0.00119229 0.149306 0
-0.0103214 0.108527 0
-0.0276678 0.0882269 0
-0.0396382 0.0562054 0
-0.0355324 0.0287499 0
-0.0480905 0.0473882 0
-0.0437534 0.0278432 0
-0.0204634 0.0357029 0
-0.0481234 0.0567195 0
-0.0412531 0.0689904 0
-0.0246637 0.0432081 0
-0.0300233 0.0628657 0
-0.052268 0.0638684 0
-0.0433585 0.0862063 0
-0.0332911 0.0659717 0
-0.0203105 0.0623175 0
-0.0122504 0.0474914 0
-0.00242704 0.040389 0
0.00547763 0.0347047 0
0.0107948 0.0216504 0
0.0150563 0.00887696 0
0.0203856 0.0101646 0
0.0128817 0.0114258 0
0.00774707 0.00108065 0
0.0156714 -0.0126268 0
0.0225154 -0.0184615 0
0.0254199 -0.0207258 0
0.0323476 -0.0271247 0
0.0208179 -0.0289825 0
0.013774 -0.0267967 0
0.00781811 -0.0265624 0
0.00316186 -0.0116742 0
-0.0016259 -0.0149152 0
0.00304755 -0.027206 0
-0.00776979 -0.0307108 0
-0.0147463 -0.0165346 0
-0.0198244 -0.0257986 0
-0.0212576 -0.0261291 0
-0.0195924 -0.0429426 0
-0.0193424 -0.0420826 0
-0.027582 -0.0442956 0
-0.0309059 -0.0353846 0
-0.0285389 -0.0252882 0
-0.0247518 -0.0132192 0
-0.0184886 -0.00756115 0
-0.0135374 -0.00421674 0
-0.00982122 0.000594491 0
-0.00725694 -0.0121807 0
-0.00470058 -0.010158 0
-0.00687432 -0.0082899 0
-0.00652184 -0.00541407 0
-0.00488723 -0.00606883 0
-0.00377083 -0.00627172 0
-0.00251429 -0.005163 0
-0.0017408 -0.00566033 0
-0.00103493 -0.00319495 0
-0.00174856 -0.00401125 0
-0.000509354 -0.00414513 0
-0.000910997 -0.00313791 0
-0.00183251 -0.00395125 0
-0.00068779 -0.00679911 0
-0.000422462 -0.00298843 0
-0.000731255 -0.00554163 0
-0.000335233 -0.00513209 0
-0.000309941 -0.00391934 0
-0.000667901 -0.0064179 0
-0.000533431 -0.00684613 0
-8.57182e-05 -0.00333302 0
0.000289447 -0.00401091 0
-0.000103113 -0.00511871 0
-0.000525858 -0.00325078 0
0 -0.00747591 0
10.0039 -0.281649 0
9.85501 -0.332851 0
9.06154 -0.27145 0
9.3348 -0.114495 0
10.1932 -0.31141 0
9.2076 -0.215679 0
9.52589 -0.0358331 0
9.61945 -0.0753371 0
9.55031 -0.134566 0
9.55966 -0.125541 0
8.75754 -0.0734619 0
9.73732 -0.094616 0
9.63318 -0.0817936 0
9.92379 -0.0311777 0
8.9886 -0.151863 0
7.93666 -0.0546781 0
7.79506 0.173067 0
7.77217 -0.0045009 0
7.03615 0.338909 0
6.95559 0.221389 0
6.81988 0.767727 0
6.61237 0.862964 0
5.61391 1.34762 0
5.58255 0.985377 0
5.73615 1.29194 0
5.28906 0.958801 0
4.86833 0.473283 0
4.1921 0.148052 0
2.98515 0.0600397 0
1.71502 0.104157 0
0.845135 -0.34942 0
0.474483 -0.962923 0
0.329614 -0.930723 0
0.199934 -1.11318 0
0.130883 -1.10566 0
0.0458101 -1.18489 0
0.0436191 -1.47687 0
-0.0193296 -1.67537 0
0.101217 -1.75813 0
0.280567 -2.03694 0
0.336733 -1.63906 0
0.248894 -1.67074 0
0.472571 -1.56156 0
0.678978 -1.32247 0
0.587882 -1.1392 0
0.624567 -0.986505 0
0.660014 -0.911293 0
0.870245 -0.752074 0
1.13239 -0.48092 0
1.22076 -0.433982 0
1.34167 -0.0484881 0
1.36917 0.000172828 0
1.49154 0.0360239 0
1.58905 0.0551067 0
1.67795 0.0212393 0
1.62733 0.0270993 0
1.69941 0.333822 0
2.145 0.456625 0
2.1963 0.531085 0
2.026 1.07499 0
1.60639 0.960421 0
1.11284 1.02582 0
0.416421 0.53612 0
-0.0493 0.134938 0
-0.0942332 0.263956 0
-0.199024 0.361199 0
-0.136743 0.438927 0
-0.132806 0.514289 0
-0.0539323 0.748385 0
-0.0274918 0.733443 0
0.0610264 0.831453 0
0.0297082 0.697835 0
-0.00987471 0.631725 0
-0.0279248 0.640971 0
-0.0300287 0.71377 0
0.0126748 0.652805 0
-0.00172834 0.795329 0
-0.0651845 0.589379 0
-0.0676597 0.440671 0
-0.0353948 0.6079 0
-0.0603578 0.634374 0
-0.0680822 0.809355 0
0.0140224 0.8415 0
0.0447148 0.860944 0
-0.0203027 0.87915 0
-0.0212007 0.835413 0
0.0835712 0.97041 0
0.215948 0.822531 0
0.170957 0.645181 0
0.136422 0.642524 0
0.151864 0.55224 0
0.111146 0.468171 0
0.0848209 0.393963 0
0.063591 0.33033 0
0.0400991 0.242872 0
0.0507801 0.197663 0
0.0574068 0.171319 0
-0.0270634 0.203643 0
-0.0127245 0.31647 0
-0.0393016 0.486967 0
-0.0576787 0.620273 0
-0.0480772 0.793749 0
-0.108519 1.01253 0
-0.109772 1.16514 0
0.00578432 1.37383 0
-0.00538393 1.45281 0
0.0167197 1.58999 0
0.117199 1.6914 0
0.231846 1.74918 0
0.324516 1.75782 0
0.400606 1.72279 0
0.426326 1.72282 0
0.457582 1.52491 0
0.473446 1.51805 0
0.477682 1.42542 0
0.397618 1.31237 0
0.37043 1.18391 0
0.369507 1.01194 0
0.315234 0.854339 0
0.239685 0.662751 0
0.195764 0.56428 0
0.134767 0.482997 0
0.113391 0.41097 0
0.0820358 0.32811 0
0.0386064 0.280843 0
0.0121071 0.243724 0
-0.00499463 0.240843 0
-0.0162547 0.204641 0
-0.0176736 0.134111 0
-0.0301678 0.113612 0
-0.0330385 0.123305 0
-0.0114979 0.0679916 0
-0.0399297 0.0590579 0
-0.0584142 0.0456905 0
-0.0534363 0.0421287 0
-0.0562422 0.0293275 0
-0.0578112 0.0522804 0
-0.0357833 0.037576 0
-0.0332813 0.0689561 0
-0.0385665 0.0551039 0
-0.0463494 0.0247282 0
-0.0352217 0.0578873 0
-0.0543601 0.0351748 0
-0.0539599 0.0752188 0
-0.0291807 0.0761839 0
-0.0216215 0.0579714 0
-0.00667069 0.0487886 0
-0.000921538 0.0388696 0
0.000797936 0.0364868 0
0.00238587 0.025614 0
0.00556853 0.0241663 0
0.00764533 0.0103567 0
0.0123386 -0.00120253 0
0.0188266 -0.00582925 0
0.0190558 -0.0195126 0
0.0193006 -0.0318092 0
0.0100581 -0.0373321 0
0.00598742 -0.0382114 0
-0.00292039 -0.0346493 0
-0.00439879 -0.0363046 0
-0.0060242 -0.0243045 0
-0.00421209 -0.0177863 0
-0.00123363 -0.0306526 0
-0.0116014 -0.0470009 0
-0.0188884 -0.053033 0
-0.0214618 -0.0413676 0
-0.0166206 -0.0413336 0
-0.011392 -0.0386035 0
-0.00833786 -0.0403576 0
-0.0110818 -0.0526775 0
-0.0171335 -0.0475299 0
-0.0186828 -0.0339236 0
-0.0156012 -0.0202164 0
-0.0133471 -0.013647 0
-0.013619 -0.00427183 0
-0.0109616 -0.00443727 0
-0.00673288 -0.00408395 0
-0.00510844 -0.0106919 0
-0.00644666 -0.00792141 0
-0.00594245 -0.00743739 0
-0.00529897 -0.00583666 0
-0.00357972 -0.00648843 0
-0.00210987 -0.00549453 0
-0.00253228 -0.00590592 0
-0.0014123 -0.00346002 0
-0.00147401 -0.00637288 0
-0.0023947 -0.00557189 0
-0.00151112 -0.00356634 0
-0.000695557 -0.00301273 0
-0.00103357 -0.00456762 0
-0.000658972 -0.00343517 0
-0.000565015 -0.00331751 0
-0.000504575 -0.00501727 0
-0.000560093 -0.00391282 0
-0.000396992 -0.00628358 0
-0.00023279 -0.00739575 0
5.14287e-05 -0.00361322 0
-0.000204721 -0.00257787 0
2.83858e-05 -0.00233529 0
9.34238e-05 -0.00546158 0
0 -0.00913497 0
10.0039 -0.439025 0
10.3787 -0.449902 0
9.57565 -0.422551 0
10.8224 -0.55004 0
8.99345 -0.487964 0
11.2353 -0.331438 0
8.89225 -0.369743 0
9.88633 -0.143422 0
9.03927 -0.232253 0
9.70667 -0.275887 0
9.4583 -0.141198 0
9.16596 -0.216497 0
9.22149 -0.201947 0
9.53346 -0.393551 0
8.84172 -0.283873 0
8.7374 -0.155286 0
8.64088 -0.0897818 0
8.42778 0.0625368 0
8.0277 0.162955 0
7.79408 0.665388 0
7.11514 0.523999 0
6.43722 0.486179 0
5.84605 0.981709 0
6.09828 1.30455 0
5.87122 1.24155 0
5.45641 0.691893 0
5.14878 0.207918 0
4.53655 0.0749848 0
3.24862 0.0174485 0
2.03592 0.0431727 0
1.31617 -0.297586 0
0.99299 -0.817523 0
0.809923 -1.03838 0
0.849933 -1.03595 0
0.907659 -1.02029 0
1.10296 -0.99593 0
1.08706 -1.20852 0
1.35663 -1.34275 0
1.47503 -1.75838 0
1.47114 -1.71685 0
1.38544 -1.64983 0
1.62491 -1.53874 0
1.71166 -0.90834 0
1.87374 -1.11653 0
1.84087 -0.926026 0
1.90708 -0.804438 0
1.84278 -0.872847 0
1.82362 -0.553924 0
1.78042 -0.286584 0
2.14641 -0.386051 0
1.93449 -0.0279663 0
2.08217 0.00882197 0
2.21604 0.0719847 0
2.16353 -0.0144338 0
2.11162 -0.0656593 0
2.06163 -0.026268 0
2.40913 0.370891 0
2.35489 0.352805 0
2.51515 0.726043 0
2.45627 0.585872 0
2.09761 0.564141 0
1.41942 0.315197 0
0.644561 -0.242625 0
0.0266306 0.00824681 0
-0.0169755 0.179396 0
-0.00417028 0.288086 0
-0.10926 0.576184 0
-0.008233 0.695312 0
0.0212585 0.751431 0
0.0128949 0.900282 0
0.0487457 0.855193 0
0.0265208 0.720165 0
0.0591656 0.665996 0
0.0283095 0.693374 0
0.054935 0.804044 0
0.0124755 0.705628 0
0.0273636 0.668386 0
0.0135937 0.524782 0
0.036501 0.571182 0
0.0015081 0.584439 0
0.00560224 0.748737 0
0.00698062 0.874556 0
-0.0343699 0.973625 0
-0.0193952 0.958744 0
0.0733365 0.867476 0
0.0737648 0.999311 0
0.068308 0.924729 0
0.105759 0.975927 0
0.109847 0.848706 0
0.0660851 0.695699 0
0.0831633 0.547393 0
0.074466 0.459387 0
0.0293155 0.414808 0
0.035056 0.422319 0
0.0627918 0.31472 0
0.143222 0.244597 0
0.150337 0.159141 0
0.0664934 0.210617 0
0.0834738 0.351577 0
0.0712578 0.505731 0
0.0575448 0.70621 0
0.0315174 0.86653 0
0.0196802 0.990271 0
0.0272074 1.23615 0
0.0568399 1.38217 0
0.131108 1.44474 0
0.150961 1.5103 0
0.193748 1.6901 0
0.361858 1.82147 0
0.457685 1.7805 0
0.44311 1.87194 0
0.51525 1.96197 0
0.55949 1.8582 0
0.502954 1.661 0
0.436022 1.45847 0
0.429967 1.43514 0
0.386675 1.17191 0
0.349264 1.07569 0
0.332897 0.876098 0
0.272142 0.785521 0
0.19998 0.602798 0
0.12067 0.498154 0
0.0712342 0.427591 0
0.0566981 0.338952 0
0.0366449 0.276341 0
0.00964882 0.232755 0
0.00363513 0.205992 0
-0.024202 0.181201 0
0.00157011 0.160773 0
-0.0286291 0.119002 0
-0.0238296 0.105593 0
-0.0164425 0.0536675 0
0.00413862 0.05658 0
-0.0349933 0.0555381 0
-0.0706394 0.0545345 0
-0.0734934 0.0646649 0
-0.0463298 0.0792304 0
-0.045816 0.0360788 0
-0.0639422 0.0794285 0
-0.0352662 0.0658799 0
-0.0499769 0.0365863 0
-0.0406261 0.043563 0
-0.0258096 0.0763488 0
-0.00878314 0.071832 0
-0.00132294 0.0623791 0
-0.00936891 0.0403345 0
-0.00695611 0.0298987 0
-0.023269 0.0488833 0
-0.0191234 0.0500106 0
-0.00938624 0.0446316 0
-0.00527066 0.0339576 0
-0.00595079 0.0167047 0
-0.00237848 -0.000867822 0
0.00280454 -0.00955505 0
0.00201146 -0.0193656 0
0.00287967 -0.0283968 0
0.00116531 -0.0409944 0
-0.00684216 -0.0419676 0
-0.00827123 -0.0495785 0
-0.010999 -0.0503442 0
-0.0102076 -0.045854 0
-0.00579477 -0.0434106 0
-0.00405944 -0.043325 0
-0.000299595 -0.0729211 0
-0.0142704 -0.0684295 0
-0.0196895 -0.0587951 0
-0.0174048 -0.0439672 0
-0.0131599 -0.0349902 0
-0.00873953 -0.0422422 0
-0.00703271 -0.0366851 0
-0.00318288 -0.051211 0
-0.00829508 -0.0433182 0
-0.0150552 -0.0264611 0
-0.0119815 -0.017959 0
-0.00880537 -0.0103005 0
-0.00616576 -0.00445812 0
-0.00595186 -0.0026712 0
-0.004236 -0.0102535 0
-0.0039155 -0.00725734 0
-0.00387697 -0.00593692 0
-0.00478534 -0.00613945 0
-0.00392226 -0.00586499 0
-0.00344506 -0.00469367 0
-0.00227657 -0.00293549 0
-0.00191079 -0.00330975 0
-0.00233552 -0.00508299 0
-0.00266175 -0.00380312 0
-0.00176667 -0.00412305 0
-0.00120038 -0.00211669 0
-0.000936683 -0.00554477 0
-0.000356089 -0.00357809 0
-0.00054318 -0.00394277 0
-2.19211e-05 -0.00528006 0
-0.000422384 -0.00395077 0
-0.000661856 -0.00554413 0
-0.000330168 -0.00578418 0
-0.000435207 -0.00425897 0
4.63186e-05 -0.00461489 0
-0.000365296 -0.00505072 0
-0.000479553 -0.005165 0
0 -0.00630097 0
10.0039 -0.871431 0
10.3829 -0.555252 0
9.54053 -0.748791 0
10.1845 -0.789623 0
9.44501 -0.612649 0
9.78656 -0.65169 0
9.35256 -0.225462 0
10.6453 -0.302094 0
9.03288 -0.350617 0
8.85474 -0.301788 0
9.20316 -0.379281 0
9.05045 -0.0409196 0
8.75379 -0.165403 0
10.0321 -0.26453 0
9.35574 0.0291074 0
9.48858 -0.34774 0
9.69024 -0.296555 0
9.29193 -0.0602307 0
8.44078 0.0102737 0
8.48261 0.43155 0
7.39815 0.160312 0
6.9375 0.555839 0
6.73898 0.480894 0
6.67595 1.49442 0
6.36649 1.06705 0
6.06113 0.513318 0
5.72305 0.25171 0
5.02495 0.06287 0
3.87516 -0.0332457 0
2.97058 0.0129648 0
2.30025 0.0539338 0
2.2327 -0.611821 0
2.26409 -0.746302 0
2.39763 -0.825357 0
2.41903 -0.758343 0
2.32585 -0.784162 0
2.4966 -0.659489 0
2.5425 -0.869008 0
2.87427 -1.34779 0
2.97204 -1.5147 0
3.14988 -1.35702 0
3.25842 -1.17167 0
3.45857 -0.925487 0
3.23919 -0.811695 0
3.15574 -0.842293 0
3.11642 -0.896013 0
3.41411 -0.604009 0
3.23782 -0.429354 0
3.29315 -0.225628 0
3.19413 -0.234148 0
3.24428 -0.181244 0
3.21829 -0.106337 0
3.12366 0.139555 0
3.30818 -0.136494 0
3.56289 -0.0168698 0
3.7111 -0.0524423 0
3.70617 0.1277 0
3.95685 0.302569 0
3.65514 0.358817 0
3.50131 0.177113 0
3.40957 0.317717 0
3.10314 -0.372935 0
2.58535 -0.722382 0
1.99857 -0.319882 0
1.20274 -0.14651 0
0.805182 0.266635 0
0.636786 0.491781 0
0.375202 0.695323 0
0.238568 0.689581 0
0.0961548 0.911049 0
0.083686 0.747932 0
0.187325 0.765576 0
0.0637505 0.671953 0
-0.0119556 0.80539 0
0.0443921 0.846668 0
0.0766622 0.709277 0
0.021601 0.873706 0
0.0198396 0.520819 0
0.0772379 0.709443 0
0.0811976 0.660321 0
0.0433351 0.780249 0
0.0705715 0.98264 0
0.0299023 0.911409 0
0.0161751 1.1988 0
0.0681499 1.16029 0
0.0827424 1.20735 0
0.06061 1.07524 0
0.0519672 1.02331 0
0.0290503 0.809886 0
0.0261721 0.666173 0
0.0141357 0.651422 0
0.0201383 0.570988 0
0.0650939 0.540046 0
0.102804 0.480847 0
0.191187 0.372208 0
0.253976 0.144709 0
0.28686 0.153675 0
0.266156 0.219836 0
0.253979 0.332581 0
0.230283 0.524955 0
0.233156 0.647431 0
0.235508 0.815232 0
0.271472 0.937079 0
0.296329 1.15895 0
0.27269 1.36869 0
0.264517 1.61957 0
0.4073 1.65935 0
0.48013 1.81764 0
0.447598 2.00431 0
0.559423 1.97579 0
0.598907 2.09658 0
0.760463 1.85471 0
0.644318 1.6349 0
0.636077 1.79356 0
0.603393 1.58556 0
0.531862 1.46656 0
0.471719 1.23495 0
0.402205 1.1318 0
0.376117 0.958696 0
0.311602 0.8024 0
0.249722 0.625412 0
0.134971 0.535399 0
0.0447817 0.453757 0
0.0314801 0.419694 0
0.024198 0.349194 0
0.00874837 0.246052 0
-0.0161023 0.163837 0
-0.0183195 0.179468 0
-0.00608236 0.157009 0
-0.00878135 0.13676 0
-0.0141373 0.111317 0
-0.0331365 0.0657317 0
-0.0449445 0.0622946 0
-0.0357459 0.0396089 0
-0.00803529 0.054816 0
-0.0147618 0.0212878 0
-0.0622945 0.0309581 0
-0.0750635 0.0392279 0
-0.0864256 0.0641499 0
-0.062264 0.0461834 0
-0.0520295 0.0392981 0
-0.0362726 0.080269 0
-0.00624291 0.0902576 0
-0.00403612 0.071906 0
-0.00199339 0.0564944 0
-0.0172398 0.0522574 0
-0.0288836 0.0494259 0
-0.0406758 0.0413813 0
-0.0278776 0.0555957 0
-0.0246656 0.0491597 0
-0.0205904 0.042569 0
-0.0124083 0.0141551 0
-0.00183843 -0.0036971 0
-0.00217256 -0.022012 0
-0.00128685 -0.0301229 0
-0.00481197 -0.0361217 0
-0.00219802 -0.0498441 0
-0.00157724 -0.0521763 0
-0.00181354 -0.0636126 0
-0.000710425 -0.0668754 0
-0.0173565 -0.0606622 0
-0.0143057 -0.0581325 0
-0.00536443 -0.0606524 0
-0.00325482 -0.0585776 0
-0.00165642 -0.078274 0
-0.00317586 -0.0738928 0
-0.0179617 -0.053977 0
-0.0161777 -0.0390095 0
-0.0140111 -0.0372495 0
-0.00987917 -0.0372017 0
-0.0056188 -0.031724 0
-0.00240943 -0.046043 0
-0.011886 -0.0317386 0
-0.0150379 -0.0252894 0
-0.00787837 -0.0122777 0
-0.00543581 -0.0059944 0
-0.0049781 -0.00624039 0
-0.00583665 -0.0080732 0
-0.00612647 -0.00817006 0
-0.00481046 -0.0041391 0
-0.0067951 -0.00572338 0
-0.00521498 -0.00456115 0
-0.00363025 -0.00490924 0
-0.00384852 -0.00401961 0
-0.00267293 -0.00366514 0
-0.00296858 -0.00451721 0
-0.00157797 -0.00561584 0
-0.00161233 -0.00182122 0
-0.00102913 -0.00481987 0
-0.000727151 -0.00278177 0
-0.00122597 -0.00378753 0
-0.00051174 -0.00347736 0
-0.000724724 -0.00357851 0
-0.0011694 -0.00422294 0
-0.000828589 -0.00598116 0
-0.000769439 -0.00522257 0
-0.000502612 -0.00390266 0
-0.000464689 -0.00260006 0
-0.000334738 -0.00490062 0
-5.82278e-05 -0.00435928 0
0 -0.00754174 0
10.0039 -0.474712 0
10.0916 -0.463677 0
9.72989 -1.22212 0
10.6383 -0.695956 0
9.46064 -1.11589 0
10.8191 -0.399458 0
9.06801 -0.443066 0
8.50323 -0.364654 0
8.99851 -0.0790159 0
9.53026 -0.535589 0
9.48663 0.0381797 0
10.5231 -0.214234 0
10.0124 -0.46548 0
10.594 -0.344624 0
9.00354 -0.217629 0
9.02467 -0.0161944 0
9.78856 -0.548341 0
10.0212 -0.370178 0
9.58747 -0.0615367 0
8.97338 -0.101938 0
8.23925 -0.163472 0
8.5005 0.138722 0
7.94929 0.0590395 0
7.92344 1.13084 0
7.68401 0.793596 0
7.14714 0.510185 0
6.57736 0.310396 0
5.82335 0.228067 0
4.61675 0.150899 0
3.65388 0.117071 0
3.10976 0.168088 0
2.98961 0.051078 0
3.10725 -0.169272 0
3.34271 -0.561033 0
3.27292 -0.69195 0
3.32079 -0.270739 0
3.34482 -0.108923 0
3.64292 -0.412436 0
3.82288 -0.518567 0
4.31788 -0.923831 0
4.19409 -0.961476 0
4.03199 -0.910609 0
4.02628 -0.911535 0
3.91146 -0.60942 0
3.90359 -0.623335 0
4.0621 -0.688759 0
4.17435 -0.470501 0
3.96231 -0.225084 0
3.79159 -0.157624 0
3.80136 -0.114007 0
3.85409 -0.055748 0
3.76698 -0.0173614 0
3.76833 0.32634 0
3.81816 0.11945 0
3.89651 -0.0477275 0
3.91186 -0.00557995 0
4.03965 0.0102494 0
4.08973 0.330168 0
4.37028 -0.0282673 0
4.26485 0.0928595 0
4.43317 0.0843259 0
4.50444 -0.783567 0
4.38493 -0.739859 0
4.32645 -0.574892 0
4.16921 -0.341336 0
3.8362 0.128226 0
3.62648 0.339203 0
3.6492 0.58873 0
3.68 0.713312 0
3.56225 0.778889 0
3.2628 0.624154 0
2.65862 0.485023 0
2.04273 0.560904 0
1.82418 0.747975 0
1.08333 0.805031 0
0.45218 0.674148 0
0.299304 0.786184 0
0.257516 0.616364 0
0.192893 0.764019 0
0.161691 0.66172 0
0.230068 1.11751 0
0.223509 1.11407 0
0.219193 1.26038 0
0.0959174 1.46372 0
0.092233 1.43773 0
0.134068 1.37417 0
0.0895857 1.2996 0
0.0539406 1.19961 0
0.0280214 0.944371 0
0.0414308 0.737597 0
0.0792695 0.850046 0
0.114812 0.71102 0
0.189866 0.604622 0
0.290393 0.537025 0
0.416722 0.37309 0
0.467006 0.234534 0
0.505887 0.220504 0
0.515249 0.195216 0
0.503763 0.291865 0
0.531216 0.371944 0
0.613854 0.687492 0
0.729137 0.798833 0
0.813362 0.765723 0
0.78388 0.994461 0
0.709857 1.12436 0
0.735038 1.49645 0
0.747066 1.65542 0
0.849257 1.75389 0
0.775117 1.82569 0
0.676735 2.02913 0
0.803213 2.04008 0
0.881227 2.0663 0
0.854341 1.92475 0
0.820377 1.81596 0
0.781871 1.64661 0
0.652101 1.54254 0
0.564553 1.29088 0
0.520519 1.11263 0
0.403487 0.923526 0
0.330576 0.814687 0
0.264651 0.669583 0
0.144784 0.518835 0
0.041647 0.46567 0
0.0155483 0.408367 0
0.00592536 0.316724 0
-0.00587031 0.245357 0
-0.0250284 0.22817 0
-0.0217075 0.207154 0
-0.04001 0.163679 0
-0.0390327 0.139982 0
-0.0658587 0.127053 0
-0.0583829 0.0831365 0
-0.051032 0.0672745 0
-0.040333 0.0450915 0
-0.0263782 0.0331088 0
-0.0492589 0.0284113 0
-0.075016 0.0294286 0
-0.0982932 0.00446572 0
-0.0897888 0.0476154 0
-0.0584812 0.0513141 0
-0.0526044 0.0708065 0
-0.0432981 0.0434434 0
-0.0384031 0.0713734 0
-0.0372109 0.0306539 0
-0.0490201 0.0578869 0
-0.0692298 0.0394911 0
-0.0631738 0.0410818 0
-0.0524959 0.0302545 0
-0.0516514 0.0339561 0
-0.0399901 0.0357369 0
-0.03248 0.0389226 0
-0.045885 0.0196153 0
-0.0372945 0.00363633 0
-0.0285676 -0.0208032 0
-0.0221845 -0.0388307 0
-0.0296763 -0.0430813 0
-0.0320822 -0.0540737 0
-0.0292807 -0.0669482 0
-0.0285455 -0.0767305 0
-0.0219144 -0.0807365 0
-0.0267223 -0.0716445 0
-0.0287692 -0.0621279 0
-0.0190487 -0.0654542 0
-0.012746 -0.0703509 0
-0.00812357 -0.0605541 0
-0.00281409 -0.0750529 0
-0.0102911 -0.0621722 0
-0.0189171 -0.0430755 0
-0.0148115 -0.0357255 0
-0.0211194 -0.0389078 0
-0.014283 -0.0282299 0
-0.0050227 -0.0342081 0
-0.000135945 -0.0393643 0
-0.0181278 -0.028826 0
-0.0113369 -0.0144 0
-0.00912226 -0.0128831 0
-0.00797949 -0.00528226 0
-0.0075559 -0.00740094 0
-0.00643699 -0.00568258 0
-0.00559954 -0.0028548 0
-0.00686422 -0.00412442 0
-0.00526889 -0.00377177 0
-0.00410056 -0.00502638 0
-0.00338185 -0.00233158 0
-0.0032161 -0.00317052 0
-0.00220164 -0.0041862 0
-0.00200289 -0.00532164 0
-0.00117369 -0.00283033 0
-0.000777493 -0.00274258 0
6.05038e-05 -0.00436111 0
-0.00110829 -0.00117419 0
-0.00143602 -0.00187057 0
-0.000945843 -0.00514261 0
-0.000837271 -0.00394981 0
-0.000951012 -0.00488861 0
-0.00051371 -0.00583268 0
-0.000182264 -0.00455135 0
-0.00056558 -0.00353008 0
-0.00058051 -0.00424381 0
-0.000612426 -0.00237077 0
0 -0.00757875 0
10.0039 -0.621233 0
10.407 -0.633749 0
9.63963 -0.555602 0
10.4917 -0.929424 0
9.70327 -0.652951 0
10.3005 -0.969869 0
9.93422 -0.853738 0
11.4824 -0.462386 0
9.59139 -0.456565 0
11.4641 -0.367463 0
9.51247 -0.044772 0
11.0127 -0.4705 0
9.27655 -0.806998 0
11.1855 -0.505559 0
9.86742 -0.547268 0
9.1102 -0.262825 0
9.62041 -0.206409 0
10.0606 -0.0926913 0
9.91893 -0.682124 0
9.74532 -0.335264 0
9.92914 -0.0526987 0
9.81919 -0.168136 0
9.51805 0.174167 0
9.61921 0.645755 0
9.31284 0.381682 0
8.55365 0.361771 0
7.67963 0.33342 0
6.73061 0.480224 0
5.56064 0.521877 0
4.79887 0.526679 0
4.32447 0.557243 0
4.05919 0.636781 0
4.22974 0.458974 0
4.56202 -0.0396307 0
4.82491 -0.306328 0
4.6746 -0.0368791 0
4.83428 0.150773 0
4.96446 0.112122 0
5.15911 -0.114484 0
5.00543 -0.571925 0
5.31059 -0.521647 0
5.55271 -0.567308 0
5.5447 -0.656996 0
5.94348 -0.334658 0
5.77432 -0.342368 0
5.69666 -0.364393 0
5.58096 -0.0698598 0
5.35734 -0.0355366 0
5.05676 0.0302011 0
5.04246 0.178651 0
4.90734 0.0617523 0
4.91948 0.0154918 0
4.9563 0.492063 0
4.80874 0.251121 0
5.01152 -0.0172979 0
4.99076 0.117351 0
4.89448 0.00776138 0
4.96229 0.412118 0
4.80648 -0.0181422 0
4.67304 -0.0515386 0
4.6473 -0.0730165 0
4.75551 -0.880355 0
4.9675 -0.72213 0
5.04789 -0.788596 0
4.79894 -0.410368 0
4.59703 -0.0392614 0
4.30386 0.157799 0
4.37548 0.441549 0
4.08324 0.661949 0
4.15455 0.723098 0
4.10904 0.38774 0
4.04003 0.160125 0
3.86044 0.488487 0
3.51958 0.412486 0
3.39451 0.362717 0
2.83977 0.306004 0
2.25014 0.516668 0
1.6018 0.487801 0
1.27196 0.641172 0
1.13445 0.731719 0
0.892611 1.0478 0
0.600437 1.19936 0
0.456068 1.44248 0
0.278076 1.4039 0
0.305203 1.7163 0
0.104315 1.23498 0
-0.0136495 1.33196 0
0.0345057 1.20273 0
0.0205873 0.974233 0
0.0451745 0.851223 0
0.0758106 0.956141 0
0.207642 0.8822 0
0.359806 0.818691 0
0.541068 0.646353 0
0.634248 0.296104 0
0.714249 0.333444 0
0.756414 0.233594 0
0.864541 0.152886 0
0.932945 0.261721 0
1.08576 0.436416 0
1.12353 0.646451 0
1.1754 0.801116 0
1.23418 1.07488 0
1.16649 1.20073 0
1.16666 1.37143 0
1.20439 1.53552 0
1.12877 1.61667 0
1.03505 1.79989 0
0.929042 1.93067 0
0.891877 1.96506 0
0.845655 2.11081 0
0.822789 2.17568 0
0.845263 2.00072 0
0.996069 1.86672 0
0.911711 1.72479 0
0.811675 1.48384 0
0.671268 1.31367 0
0.58082 1.05646 0
0.484434 0.925525 0
0.356422 0.803686 0
0.259381 0.741415 0
0.15106 0.538895 0
0.0458362 0.521311 0
0.00255728 0.458045 0
0.00632151 0.338332 0
-0.0177774 0.229747 0
-0.0263368 0.216553 0
-0.0136487 0.190724 0
-0.0550899 0.152306 0
-0.0516054 0.113367 0
-0.0486772 0.0915906 0
-0.0803123 0.0896852 0
-0.0597824 0.0714345 0
-0.076591 0.0717534 0
-0.0562134 0.0432691 0
-0.0868269 0.0538145 0
-0.0680126 0.0360148 0
-0.0740543 0.00736172 0
-0.0593363 0.0697794 0
-0.0522242 0.0696592 0
-0.058658 0.0508251 0
-0.0907837 0.0374591 0
-0.0801518 0.0845763 0
-0.105723 0.0566512 0
-0.104514 0.0440085 0
-0.111101 0.0430038 0
-0.11139 0.0421512 0
-0.0962755 0.0547368 0
-0.0878162 0.0459036 0
-0.077507 0.0357447 0
-0.0570892 0.0278645 0
-0.0665077 0.0207489 0
-0.0872689 -0.00221946 0
-0.0903331 -0.00162176 0
-0.0776671 -0.0147634 0
-0.0804185 -0.0573109 0
-0.0755271 -0.0676823 0
-0.0647925 -0.0865349 0
-0.0602448 -0.079458 0
-0.0539872 -0.072005 0
-0.03731 -0.0710523 0
-0.047117 -0.0620623 0
-0.0441101 -0.0459161 0
-0.0394248 -0.0752312 0
-0.0370109 -0.0609972 0
-0.023668 -0.0506901 0
-0.0152108 -0.056902 0
-0.0249163 -0.0509889 0
-0.0202056 -0.0365658 0
-0.0168862 -0.0414448 0
-0.0170705 -0.0307033 0
-0.0167622 -0.0211568 0
-0.00757287 -0.0410764 0
-0.0247963 -0.0336062 0
-0.0182799 -0.0181118 0
-0.0115817 -0.010095 0
-0.00963581 -0.0116139 0
-0.00741223 -0.00896045 0
-0.00459142 -0.006615 0
-0.00367857 -0.0013554 0
-0.00436862 -0.000705814 0