<?xml version="1.0"?>
<VTKFile type="StructuredGrid"  version="0.1" byte_order="LittleEndian" compressor="vtkZLibDataCompressor">
  <StructuredGrid WholeExtent="0 200 0 20 0 0">
    <Piece Extent="0 200 0 20 0 0">
      <PointData Vectors="Velocity">
        <DataArray type="Float32" Name="Velocity" NumberOfComponents="3" format="ascii">
10.0039 0.33269 0
9.84599 0.415803 0
9.56159 0.127788 0
9.00132 0.569669 0
8.66133 0.806608 0
8.57644 0.430039 0
7.50781 1.14118 0
6.90644 0.915436 0
7.11893 0.564974 0
5.96051 2.20646 0
5.14124 1.93145 0
5.42027 1.31158 0
4.86884 1.19448 0
4.47653 0.924964 0
3.88681 0.841873 0
4.22263 0.653851 0
3.05129 0.269902 0
3.81947 0.945066 0
3.07104 0.879891 0
1.1864 0.331618 0
0.443743 0.0719126 0
0.139787 0.0166468 0
0.0332179 -0.00882952 0
-0.0305645 -0.0102927 0
-0.0320629 0.0237054 0
-0.012786 0.0209476 0
-0.028952 -0.0422722 0
0.0768051 -0.0498999 0
0.0605486 -0.0423463 0
0.0311853 -0.0649418 0
0.113138 -0.246682 0
0.172853 -0.312762 0
0.225645 -0.528574 0
0.252866 -0.82987 0
0.198247 -0.636379 0
0.37006 -0.930213 0
0.250796 -0.676146 0
0.278532 -0.711295 0
0.438208 -1.03671 0
0.687095 -1.25926 0
0.497903 -0.886328 0
0.686493 -0.518197 0
0.585328 -0.262796 0
0.399271 -0.635802 0
0.311835 -0.437064 0
0.217135 -0.391389 0
0.185749 -0.593459 0
0.351165 -0.614383 0
0.13352 -0.741207 0
0.0610288 -0.512132 0
-0.0035842 -0.806229 0
0.0372588 -0.635082 0
0.0705557 -0.268051 0
-0.0381622 -0.323564 0
-0.217519 -0.430375 0
0.0407416 -0.382663 0
-0.118749 -0.476174 0
-0.176114 -0.164809 0
6.29801e-05 -0.101005 0
-0.0729137 -0.104507 0
-0.0138319 -0.198532 0
0.0399108 -0.0593636 0
0.0189917 -0.0646142 0
0.0208991 0.0228281 0
0.0235926 0.0884218 0
0.0885595 0.027649 0
0.077015 0.12786 0
0.0792409 0.115317 0
0.0358697 0.00743962 0
-0.025832 0.0881388 0
-0.0460449 0.168328 0
-0.182764 0.0251138 0
-0.228354 0.21062 0
-0.36703 0.106137 0
-0.405982 0.115994 0
-0.368919 0.143094 0
-0.281081 0.324311 0
-0.391399 0.145354 0
-0.739169 0.599753 0
-0.962192 0.432817 0
-0.989179 0.621127 0
-1.13597 0.498862 0
-1.24378 0.73832 0
-1.25506 1.00035 0
-1.04716 1.82049 0
-0.656865 2.154 0
-0.645174 2.3593 0
-0.588508 2.46289 0
-0.354878 2.02165 0
-0.372524 2.17939 0
-0.382847 2.17491 0
-0.28122 2.30525 0
-0.258851 2.59763 0
-0.464221 2.80747 0
-0.295961 2.53967 0
-0.535772 2.15387 0
-0.930228 2.97495 0
-0.85404 4.03215 0
-0.593673 5.27716 0
-0.307272 4.78791 0
0.222098 3.81951 0
0.0159541 4.74545 0
0.221649 4.39975 0
0.968298 3.53208 0
0.839873 2.64928 0
0.733224 1.92522 0
0.681507 1.73122 0
0.481099 0.665125 0
0.465003 0.133801 0
0.328718 -0.012308 0
0.157616 -0.122014 0
0.0373178 0.0488532 0
-0.0573022 0.0563629 0
-0.170302 0.112927 0
-0.16849 0.130732 0
-0.219796 -0.164849 0
-0.0438287 -0.180205 0
-0.618583 -0.402822 0
-1.28695 -0.476446 0
-1.58312 -0.412726 0
-1.44686 -0.128196 0
-1.38839 -0.0655425 0
-1.17103 -0.0203711 0
-0.966896 0.0229542 0
-0.810605 0.0156791 0
-0.689726 -0.11322 0
-0.598693 -0.0817622 0
-0.443405 -0.0838561 0
-0.344409 -0.124546 0
-0.185376 -0.0294698 0
-0.0991241 0.0217378 0
-0.101716 0.0378057 0
-0.109204 0.0315238 0
-0.0716101 0.0708486 0
-0.0376953 0.177949 0
-0.00467736 0.189592 0
-0.00392072 0.212492 0
0.0106929 0.205837 0
0.0131831 0.221088 0
0.00507145 0.206259 0
0.00259804 0.20369 0
0.00535466 0.244449 0
0.0204011 0.214163 0
0.0422265 0.191859 0
0.0690876 0.199481 0
0.0706221 0.123599 0
0.049497 0.0644256 0
0.0311592 0.0542068 0
0.0138712 0.00803953 0
0.00731665 0.0249165 0
-0.0174512 0.0149923 0
0.0103146 0.0239378 0
0.0315438 -0.00964089 0
0.0528194 0.0104625 0
0.111058 -0.00657312 0
0.102843 -0.00552792 0
0.0671891 0.00278431 0
0.0810082 -0.0108436 0
0.0772038 -0.0106806 0
0.0539708 -0.0141058 0
0.0464505 -0.0208412 0
0.0494035 -0.0181346 0
0.0179421 -0.0309894 0
-0.00498056 -0.0273007 0
0.00539797 -0.0195911 0
0.0164668 -0.0141531 0
0.00517557 -0.0122099 0
-0.00608101 -0.00712311 0
0.00510757 -0.00592084 0
0.00404512 -0.00742181 0
0.00540701 -0.00730103 0
0.000384794 -0.00271184 0
0.00575488 -0.00341696 0
-0.00308289 -0.0065012 0
0.00573165 -0.00462246 0
0.0208785 -0.00138261 0
0.004851 -0.0010043 0
0.0108473 -0.000479664 0
0.0116848 -0.000862273 0
0.00593583 0.00424242 0
0.00212752 0.000572011 0
-0.000774494 0.00235938 0
-0.00321976 0.00332632 0
-0.00587605 0.00230967 0
-0.00586883 0.00235368 0
-0.00767011 0.00122058 0
-0.00935523 0.00103733 0
-0.0085983 0.000267427 0
-0.0109424 0.000495632 0
-0.0127489 -0.00157157 0
-0.013352 -0.00351607 0
-0.00992764 -0.00417878 0
-0.0108868 -0.00526474 0
-0.00898365 -0.000958608 0
-0.00622119 -0.00547035 0
-0.00217391 -0.00138308 0
-0.000446831 -0.0107481 0
0.000481663 -0.00389329 0
0.00156786 -0.00773893 0
-0.00093381 -0.0136849 0
0 -0.0100946 0
10.0039 0.227176 0
9.40403 0.14955 0
9.06723 0.123933 0
8.3855 0.228871 0
8.23068 0.463757 0
7.26494 0.572783 0
8.78003 0.349149 0
7.0109 0.172494 0
6.74589 1.31679 0
6.6769 1.38615 0
5.15059 1.50671 0
5.24188 1.46599 0
4.98122 1.06905 0
4.29715 1.12792 0
4.6893 0.832613 0
4.0987 0.498962 0
3.38603 0.524734 0
4.09468 0.569583 0
2.79801 0.239576 0
1.12774 0.107059 0
0.323783 0.0607708 0
0.10094 9.17709e-05 0
0.0110477 -0.00899857 0
-0.0375445 0.0254679 0
-0.0839236 -0.0110612 0
-0.0643029 -0.0264411 0
-0.103499 -0.0279146 0
-0.0730069 -0.0226433 0
-0.0383629 -0.0566826 0
0.0145404 -0.075537 0
0.0418364 -0.198701 0
0.0719889 -0.328292 0
0.0392628 -0.557595 0
0.0205722 -0.776365 0
0.112297 -0.780267 0
0.0563588 -0.834038 0
0.308743 -0.760241 0
0.489628 -0.71635 0
0.140073 -0.719294 0
0.0627428 -0.697844 0
0.434236 -0.716413 0
0.451697 -0.781032 0
0.448866 -0.557775 0
0.435188 -0.372369 0
0.437605 -0.526257 0
0.198328 -0.344939 0
0.174973 -0.676207 0
0.0581945 -0.821151 0
0.0991624 -0.8868 0
0.141985 -0.649854 0
0.0816273 -0.42606 0
0.0561017 -0.472424 0
0.0168955 -0.708262 0
-0.0118575 -0.64714 0
-0.0237453 -0.531767 0
-0.0359831 -0.293829 0
0.00168858 -0.368787 0
0.0398656 -0.159209 0
0.0542891 -0.341507 0
0.0272277 -0.124221 0
0.0329108 -0.0397179 0
0.0620341 -0.135683 0
0.0908252 -0.0333273 0
0.0958395 0.0285214 0
0.127448 0.116305 0
0.142982 0.0858236 0
0.149799 0.115202 0
0.108008 0.150862 0
0.0814081 0.0878488 0
0.0177627 0.1135 0
-0.026211 0.153234 0
-0.00533763 0.109029 0
-0.0875518 0.184836 0
-0.169758 0.1512 0
-0.204651 0.0983679 0
-0.277754 0.0450827 0
-0.326987 0.286611 0
-0.296639 0.20365 0
-0.57656 0.562266 0
-0.66997 0.486238 0
-0.701821 0.54715 0
-0.791921 0.690362 0
-1.02289 0.810233 0
-0.865216 1.30948 0
-0.723804 1.88494 0
-0.686296 2.25566 0
-0.426098 2.31097 0
-0.451625 2.40257 0
-0.441737 2.14783 0
-0.480017 2.16443 0
-0.464171 2.40007 0
-0.187981 2.35145 0
-0.257229 2.3916 0
-0.408975 2.39511 0
-0.699114 2.32755 0
-0.556237 1.76043 0
-0.412002 1.71145 0
-0.940167 3.17718 0
-0.699056 3.9461 0
-0.358011 4.15189 0
0.0566115 4.05415 0
0.172639 4.07327 0
-0.0448881 4.30794 0
-0.198587 3.43305 0
-0.176484 2.62406 0
0.433603 1.85884 0
0.219371 1.08485 0
0.083001 0.598867 0
0.0945203 0.225275 0
0.165836 0.0116304 0
0.111383 -0.257092 0
0.0493338 -0.18478 0
-0.170471 0.077821 0
-0.385813 0.1368 0
-0.527126 0.102632 0
-0.749175 -0.0723092 0
-0.914404 -0.249898 0
-0.952216 -0.58156 0
-0.814279 -0.815924 0
-1.44395 -0.490178 0
-1.41787 -0.21991 0
-1.3633 -0.138141 0
-1.19487 0.0628248 0
-0.985142 0.04098 0
-0.792638 0.0459269 0
-0.675988 -0.0196746 0
-0.563159 -0.0278895 0
-0.487122 -0.0364397 0
-0.310773 0.00670997 0
-0.187082 0.0387697 0
-0.121147 0.0538923 0
-0.0994868 0.0633455 0
-0.0667984 0.0863784 0
-0.0482275 0.11399 0
-0.0412542 0.174227 0
-0.0218257 0.195565 0
-0.00537929 0.207354 0
-0.00994618 0.190002 0
0.0220504 0.16724 0
0.0153977 0.140637 0
0.00827336 0.159445 0
0.00849412 0.094522 0
0.00779318 0.153881 0
-1.90582e-05 0.0892625 0
0.0226902 0.163191 0
0.00846558 0.124509 0
0.0307845 0.0961844 0
0.0223159 0.037984 0
0.0156548 0.0467508 0
0.0180349 0.0337213 0
0.00638735 0.0516205 0
0.00289789 0.0344244 0
0.0262391 0.0167847 0
0.0303019 0.0141737 0
0.0457218 -0.00144176 0
0.0708616 0.00463308 0
0.0773633 -0.000152438 0
0.0656761 -0.0103785 0
0.0508935 -0.0116689 0
0.0641663 -0.0103286 0
0.039914 -0.0325331 0
0.0368118 -0.0307137 0
0.0277263 -0.0276367 0
0.00509437 -0.0225145 0
-0.00230804 -0.0212323 0
0.00287929 -0.0203385 0
0.0123099 -0.0162253 0
0.000807292 -0.0124034 0
0.0035441 -0.0124239 0
0.00680149 -0.00896358 0
-0.00211751 -0.00718455 0
-0.00560007 -0.00687958 0
0.00446801 -0.00617946 0
-0.00569642 -0.00335882 0
0.00216503 -0.00450716 0
0.00287148 -0.0020827 0
0.00440982 -0.00150213 0
0.000374687 -0.00141962 0
0.00523499 -0.00189999 0
0.00383066 0.00157982 0
0.00124689 0.00210377 0
-0.0012849 0.00151109 0
-0.00330794 0.00262895 0
-0.00431545 0.00292632 0
-0.0033233 0.00188001 0
-0.00249839 0.00144981 0
-0.00519026 -0.000231899 0
-0.00562102 -0.00247873 0
-0.0115598 -0.000883115 0
-0.0112544 -0.00102055 0
-0.0091016 -0.000374598 0
-0.00884718 -0.0021637 0
-0.0076522 -0.00552852 0
-0.00627847 -0.00312701 0
-0.00619852 -0.000959106 0
-0.00476818 -0.00374946 0
-0.00428222 -0.00896719 0
-0.00267515 -0.00318838 0
-0.00124896 -0.0176632 0
-0.000740876 -0.0179967 0
0 -0.00983564 0
10.0039 0.142267 0
9.51287 0.0691457 0
9.62264 0.147455 0
8.5571 -0.228537 0
9.3972 0.294255 0
7.90414 -0.0982752 0
6.76365 0.717511 0
7.0065 0.732912 0
6.68266 1.07923 0
6.3269 1.08463 0
5.40713 1.04609 0
5.82502 0.550817 0
5.30012 1.38402 0
5.35911 1.10426 0
4.96017 0.302638 0
4.17192 0.775544 0
3.39282 0.561775 0
3.75502 0.0555713 0
2.61732 0.0173649 0
1.20207 0.113405 0
0.34538 0.0532688 0
0.0903562 0.0383521 0
0.0471772 0.00782072 0
-0.0571974 -0.0108768 0
0.0161664 -0.0282761 0
0.0240115 -0.0227517 0
-0.089307 -0.0329847 0
0.0671346 -0.0262312 0
-0.0499889 -0.0205429 0
-0.0759142 -0.0580896 0
-0.0524781 -0.177107 0
0.0637606 -0.380488 0
0.0714818 -0.492797 0
0.073677 -0.604311 0
0.0402652 -0.803284 0
0.053499 -0.863554 0
0.138889 -0.777216 0
0.197445 -0.927015 0
0.133637 -1.06784 0
0.201547 -0.840503 0
0.221157 -0.745077 0
0.169161 -0.6688 0
0.170345 -0.727634 0
0.241532 -0.512348 0
0.359212 -0.380458 0
0.39917 -0.489464 0
0.0967265 -0.424203 0
0.135024 -0.624457 0
0.124708 -0.879159 0
0.113938 -0.764854 0
0.0886922 -0.593674 0
0.0759351 -0.864625 0
0.0330633 -0.642376 0
0.0518643 -0.769018 0
0.0277066 -0.573534 0
0.131313 -0.204335 0
0.205333 -0.304489 0
0.170744 -0.154896 0
-0.0118255 -0.191494 0
0.0486069 -0.110431 0
0.0411999 -0.0892343 0
0.0874764 -0.101703 0
0.194895 -0.0167623 0
0.239011 0.0307683 0
0.113611 0.0778984 0
0.153981 0.072188 0
0.198555 0.130656 0
0.174481 0.106277 0
0.183307 0.124645 0
0.110785 0.148419 0
0.0161393 0.182786 0
-0.0208305 0.175755 0
-0.110418 0.172656 0
-0.210134 0.120115 0
-0.259879 0.132461 0
-0.339017 0.0161964 0
-0.316941 -0.0122013 0
-0.163152 0.0359089 0
-0.272673 0.531027 0
-0.376542 0.332111 0
-0.420765 0.355715 0
-0.44372 0.623835 0
-0.370241 0.937004 0
-0.418211 1.46231 0
-0.513919 1.77462 0
-0.541664 2.14225 0
-0.446895 2.19061 0
-0.475536 1.96175 0
-0.486221 2.09964 0
-0.467572 2.37373 0
-0.550227 2.2421 0
-0.644898 2.16337 0
-0.586657 2.11952 0
-0.652887 2.07703 0
-0.96323 2.19947 0
-0.514691 1.9795 0
-0.212993 2.29347 0
0.125718 2.6933 0
-0.0375094 3.06043 0
-0.0566219 3.03255 0
0.0245711 3.05857 0
-0.181424 3.28979 0
-0.210664 3.10722 0
-0.348994 2.54157 0
-0.437317 2.70914 0
-0.274832 1.31602 0
-0.470478 0.985313 0
-0.128763 0.613899 0
0.024225 0.244792 0
0.198327 0.0069114 0
0.206373 0.0029529 0
0.116374 -0.456504 0
-0.223785 -0.29689 0
-0.667634 -0.203395 0
-1.308 -0.27306 0
-1.71341 -0.439182 0
-1.6222 -0.599272 0
-1.39478 -0.41117 0
-1.0987 -0.216774 0
-1.56613 -0.500473 0
-1.1701 -0.329998 0
-0.780615 -0.134575 0
-0.507558 -0.0609155 0
-0.367697 0.0300869 0
-0.42904 0.0858253 0
-0.461802 0.0687014 0
-0.485203 0.0417164 0
-0.38186 0.0444746 0
-0.308534 0.0724988 0
-0.249295 0.101549 0
-0.196979 0.0919309 0
-0.162969 0.0869824 0
-0.109689 0.12971 0
-0.0789306 0.146794 0
-0.0676877 0.0450834 0
-0.0393512 0.0653787 0
-0.0189721 0.096357 0
-0.0143974 0.0626325 0
-0.00978544 0.162569 0
-0.00591721 0.122259 0
0.00358509 0.128587 0
0.025869 0.141825 0
0.0212502 0.0906065 0
-0.00705237 0.142409 0
-0.0243974 0.157825 0
-0.00573561 0.18172 0
0.0157842 0.115113 0
0.025816 0.11376 0
0.0309733 0.116369 0
0.0397562 0.105752 0
0.0486937 0.0580012 0
0.0319459 0.0650062 0
0.0288867 0.0388052 0
0.00299116 0.00990068 0
0.0123944 -0.00202956 0
0.0455212 -0.00301521 0
0.0440488 -0.00744485 0
0.0455855 -0.0060497 0
0.0528222 -0.00545825 0
0.0540787 0.0054693 0
0.0417401 -0.0126772 0
0.0255222 -0.0103192 0
0.0261234 -0.0307448 0
0.00627078 -0.0232883 0
0.0155694 -0.0213047 0
0.00801143 -0.017329 0
0.0110292 -0.016586 0
0.0231224 -0.0173192 0
0.00994104 -0.0198929 0
0.00904349 -0.0170579 0
0.00620773 -0.0147252 0
0.00551517 -0.0131777 0
-0.000734526 -0.0104345 0
-0.00340456 -0.00577951 0
0.00265458 -0.00437465 0
0.00342356 -0.00546265 0
0.00413723 -0.00261999 0
-0.00105017 -0.00121083 0
0.00241202 0.000376354 0
0.00329468 0.00157765 0
0.000576413 0.00256903 0
-0.00225921 0.00373882 0
-0.0056155 0.00348895 0
-0.00577047 0.00275165 0
-0.00565908 0.00168823 0
-0.00688815 -0.00102665 0
-0.00587338 -0.00104364 0
-0.00571887 -0.000457424 0
-0.00786152 0.00239178 0
-0.0068794 0.00122845 0
-0.00894989 -0.00241149 0
-0.00513947 -0.000984195 0
-0.00442817 -0.00387981 0
-0.00295272 -0.00254691 0
-0.00861359 -0.00159056 0
-0.00931821 -0.00466369 0
-0.00604016 -0.00479393 0
-0.00370951 -0.00839643 0
-0.00109102 -0.0065871 0
-0.00229553 -0.0140816 0
0 -0.00986625 0
10.0039 -0.0913498 0
9.64458 -0.159796 0
8.59551 -0.09776 0
8.77343 0.0314268 0
7.6177 -0.0871567 0
8.24158 -0.0898447 0
8.77582 0.570761 0
7.5238 0.730385 0
6.50224 0.661758 0
7.1632 0.787291 0
6.28605 0.681748 0
6.34271 0.573311 0
6.19346 0.896189 0
5.6323 0.872546 0
4.99026 0.215965 0
4.24387 0.209934 0
3.72085 0.405471 0
3.29781 0.0531027 0
2.66189 -0.142109 0
1.38786 0.0510368 0
0.444954 0.0764633 0
0.0982838 0.0342044 0
0.0228045 -0.011232 0
-0.0441471 -0.0362795 0
0.0765161 -0.0272518 0
-0.0170782 -0.026737 0
-0.0262996 0.0107482 0
0.115337 -0.103302 0
0.0514551 -0.0861751 0
-0.00890927 -0.0685256 0
0.0473564 -0.223534 0
0.145612 -0.36034 0
0.0450216 -0.379585 0
0.0381859 -0.49839 0
0.107748 -0.671145 0
0.351174 -0.637584 0
0.470347 -0.915791 0
0.431696 -1.27049 0
0.213088 -1.02494 0
0.50451 -1.08948 0
0.547467 -0.942493 0
0.5452 -0.615136 0
0.63306 -0.671046 0
0.529965 -0.508322 0
0.154525 -0.336998 0
0.301251 -0.412534 0
0.386112 -0.223075 0
0.0385144 -0.427051 0
0.0803713 -0.412946 0
0.383011 -0.635011 0
0.344127 -0.574226 0
0.357807 -0.440939 0
0.423619 -0.847415 0
0.457293 -0.568821 0
0.541434 -0.36572 0
0.636741 0.0135143 0
0.558096 -0.0229316 0
0.385609 -0.421673 0
0.256958 -0.180307 0
-0.00686863 0.124989 0
0.0878891 -0.183567 0
0.314008 -0.00632572 0
0.370719 0.0223668 0
0.364608 0.0209059 0
0.187951 0.0685546 0
0.326085 0.121148 0
0.278069 0.0228549 0
0.214016 0.181312 0
0.319685 0.0898002 0
0.240271 0.159375 0
0.0705544 0.149214 0
0.0212969 0.198093 0
0.0371031 0.103809 0
-0.0384166 -0.0536974 0
-0.0589547 0.00707106 0
-0.0736314 0.0300379 0
-0.0824596 0.127784 0
-0.0907179 0.004873 0
-0.20511 0.282888 0
-0.243917 0.388838 0
-0.141956 0.425741 0
-0.070343 0.687122 0
-0.279498 0.97959 0
-0.462721 1.31586 0
-0.380334 1.7225 0
-0.438095 2.082 0
-0.533711 1.99986 0
-0.600374 2.05177 0
-0.55166 2.03641 0
-0.732809 2.02318 0
-0.928025 2.07511 0
-1.16047 1.87009 0
-1.14659 1.83781 0
-1.01495 1.6545 0
-1.21218 1.93133 0
-1.0869 2.69556 0
-0.240229 3.45728 0
-0.17417 4.12242 0
-0.137267 2.04572 0
-0.276998 4.90726 0
-0.184749 4.27095 0
-0.113795 3.11936 0
-0.0900971 2.94087 0
0.449264 2.37204 0
0.487294 2.90975 0
0.603721 1.64047 0
1.01299 1.32702 0
0.629613 0.625135 0
0.410613 0.220946 0
-0.0587298 -0.0839138 0
-0.132949 -0.0848894 0
-0.592443 -0.609154 0
-1.14791 -0.397897 0
-1.26232 -0.830507 0
-1.48468 -0.827034 0
-1.31833 -1.14697 0
-1.91279 -0.782148 0
-1.89862 -0.630416 0
-1.98886 -0.186578 0
-1.87573 -0.0443265 0
-1.48757 -0.0844161 0
-1.06585 -0.248602 0
-0.634197 -0.10494 0
-0.330838 -0.0686883 0
-0.203674 -0.0362686 0
-0.179874 0.13293 0
-0.149138 0.142584 0
-0.481808 0.158355 0
-0.416932 0.146267 0
-0.360923 0.179173 0
-0.288088 0.155366 0
-0.248306 0.0600792 0
-0.181686 0.0808337 0
-0.130549 0.0757875 0
-0.116832 -0.00333008 0
-0.096234 0.12726 0
-0.0694483 0.0678775 0
-0.0416581 0.0790916 0
-0.0303475 0.0652188 0
-0.0334158 0.091752 0
-0.00799093 0.189391 0
0.0273759 0.13914 0
0.00487388 0.14321 0
0.0120192 0.113556 0
0.00710489 0.240426 0
0.0104084 0.20313 0
0.0255748 0.187202 0
0.0468321 0.167812 0
0.0552403 0.134436 0
0.0820084 0.109176 0
0.0630906 0.0767912 0
0.0309732 0.0303719 0
0.0180383 0.0141887 0
0.0188882 0.012 0
0.00890006 0.00375193 0
0.0121942 -0.0084324 0
0.0195564 -0.0141584 0
0.020623 -0.00838817 0
0.0362881 -0.00745574 0
0.0281476 -0.0156882 0
0.00924713 -0.013392 0
0.0127156 -0.00502157 0
-0.00126929 -0.0192637 0
0.00158411 -0.0150516 0
0.00448636 -0.0364821 0
0.00128558 -0.0221821 0
-0.00912294 -0.0189781 0
0.0112284 -0.0176117 0
0.0163343 -0.0195018 0
0.0100388 -0.022173 0
-0.00404508 -0.0192202 0
0.000760582 -0.015567 0
0.0025522 -0.0127234 0
0.00139232 -0.0134798 0
-0.0015769 -0.00921508 0
0.00268357 -0.00753216 0
0.000316193 -0.00479734 0
-0.00148024 -0.00137413 0
0.00111451 -0.000946856 0
-0.0018294 0.00048931 0
-0.00537598 0.00179469 0
-0.00832433 -7.4017e-06 0
-0.0127234 0.00292041 0
-0.00952246 0.00366621 0
-0.0109636 0.00314716 0
-0.00545308 0.000851078 0
-0.00210887 -0.000802839 0
-0.00337199 -0.0012478 0
-0.00862106 -0.00041127 0
-0.00745234 -7.48636e-05 0
-0.00895572 0.000214139 0
-0.00985185 -0.00119823 0
-0.0121282 -0.00241802 0
-0.00790503 -0.00235564 0
-0.00722319 -0.00187577 0
-0.00692614 -0.00252968 0
-0.00468104 -0.00837233 0
-0.00289614 -0.00582103 0
-0.00345498 -0.00785139 0
-0.00183014 -0.0174476 0
0 0.0014563 0
10.0039 -0.355573 0
9.59315 -0.341805 0
9.12927 -0.185689 0
8.58946 0.0337356 0
9.39752 -0.171432 0
8.52995 0.354362 0
7.703 0.192935 0
8.4341 -0.0212367 0
7.63772 0.733487 0
7.38762 0.411839 0
6.21942 0.422277 0
6.9518 0.586924 0
5.80225 0.384847 0
5.9886 0.00325511 0
5.02514 0.485305 0
4.55199 0.344702 0
3.99482 0.317172 0
2.9208 0.160865 0
2.33412 -0.181872 0
1.3004 -0.0235044 0
0.517371 0.103063 0
0.146272 0.0486452 0
0.079257 0.0137936 0
0.0580679 -0.0583866 0
0.0440169 -0.0190136 0
-0.0303967 -0.0156201 0
0.0173956 0.0338063 0
0.154441 -0.0630939 0
0.0411365 -0.166811 0
0.0129448 -0.182972 0
0.13267 -0.204045 0
0.188341 -0.268144 0
0.054949 -0.451543 0
0.0291534 -0.457738 0
0.192451 -0.596927 0
0.136185 -0.673678 0
0.289519 -0.965134 0
0.301161 -1.11908 0
0.375898 -0.905426 0
0.341926 -1.04313 0
0.34161 -1.06077 0
0.474938 -0.92678 0
0.315405 -0.760509 0
0.742267 -0.591744 0
0.775995 -0.0956668 0
1.16781 -0.361122 0
1.22324 -0.219302 0
1.29241 -0.074123 0
1.77816 -0.298029 0
1.96985 -0.153067 0
2.00336 -0.105255 0
2.03028 -0.0712279 0
2.60954 -0.394081 0
2.45705 -0.332381 0
2.19318 -0.142818 0
1.95052 -0.143055 0
1.89169 -0.025448 0
1.80849 -0.111399 0
1.82589 -0.133946 0
1.89379 -0.0429677 0
1.7193 -0.171732 0
1.3982 -0.0544645 0
1.30672 -0.0264774 0
1.27217 0.0102719 0
1.34297 -0.0246535 0
1.22265 -0.034801 0
1.11271 -0.0122246 0
0.898717 0.112591 0
0.83413 0.142952 0
0.737872 0.150326 0
0.567565 0.151553 0
0.625345 0.221211 0
0.373435 -0.0231303 0
0.341082 -0.000272835 0
0.420106 0.0143643 0
0.304452 0.0131983 0
0.13956 0.0388196 0
0.0717119 -0.0100764 0
-0.0277435 -0.094345 0
-0.208639 0.23266 0
0.00924079 0.543985 0
-0.0389766 0.741405 0
-0.172917 0.797656 0
-0.219966 1.31179 0
-0.525893 1.72549 0
-0.736543 1.95115 0
-0.797675 2.07616 0
-0.68907 2.1454 0
-0.867572 2.14158 0
-0.962164 2.03732 0
-1.10408 1.74436 0
-0.464124 1.89492 0
-0.613999 1.96497 0
-0.813715 1.94242 0
-1.01147 1.85186 0
-1.27225 2.31505 0
-1.54457 2.27453 0
-0.924723 3.88648 0
-0.661104 2.95357 0
-0.468787 3.20966 0
-0.0932264 3.73897 0
0.317122 4.02558 0
0.108331 3.66798 0
0.340867 3.70474 0
0.49077 2.96098 0
0.207314 2.31364 0
0.198583 1.22108 0
0.40948 0.257734 0
0.493175 -0.236359 0
0.0292922 -0.590536 0
-1.17773 -0.761949 0
-0.960673 -1.09248 0
-0.978805 -0.766706 0
-1.85125 -0.887779 0
-2.14151 -0.285206 0
-2.02426 -0.667008 0
-1.7606 -1.31832 0
-1.73962 -0.873102 0
-1.33578 -0.344296 0
-1.69023 -0.0811255 0
-1.41316 0.0265664 0
-1.04518 -0.148339 0
-0.720967 -0.044927 0
-0.405089 -0.0354732 0
-0.271644 0.0514061 0
-0.147205 -0.0302137 0
-0.0305943 0.120873 0
-0.0227984 0.144089 0
-0.0244577 0.155647 0
-0.145007 0.1682 0
-0.209074 0.140197 0
-0.172819 0.110437 0
-0.119502 0.0944747 0
-0.081539 0.0303627 0
-0.0602118 0.0115305 0
-0.0491601 0.00822532 0
-0.101797 0.0728826 0
-0.113145 0.168947 0
-0.0702874 0.0784063 0
-0.046923 0.0663123 0
-0.0330342 0.132401 0
-0.0268725 0.163482 0
-0.0235548 0.181736 0
0.0131027 0.128929 0
0.0129113 0.154432 0
0.00756423 0.205948 0
0.0012075 0.159543 0
-0.00612781 0.126839 0
-0.014021 0.0997966 0
0.0111335 0.0909348 0
0.0194547 0.0663865 0
0.0233063 0.0284616 0
0.0173741 -0.00133729 0
0.0135351 -0.00187162 0
0.00816559 -0.0140184 0
0.0108251 -0.0300277 0
0.00515346 -0.0307641 0
0.00257724 -0.0379889 0
0.000959873 -0.0408454 0
-0.00372901 -0.0365832 0
-0.00822776 -0.0261809 0
-0.0064752 -0.0150626 0
-0.00788493 -0.0183197 0
-0.0126944 -0.0120409 0
-0.00520395 -0.00412593 0
-0.000245834 -0.0335756 0
0.00346034 -0.0329901 0
-0.00516962 -0.0211555 0
0.000668234 -0.0124257 0
0.0119263 -0.010423 0
0.00349256 -0.0208945 0
-0.000854298 -0.0206772 0
-0.00310986 -0.0176326 0
-0.00376007 -0.015527 0
-0.0056236 -0.0131673 0
-0.00449586 -0.0101667 0
-0.00382245 -0.0060556 0
-0.0050184 -0.00225816 0
-0.00606083 -0.00171211 0
-0.00871126 -0.000118056 0
-0.0139062 0.000374445 0
-0.0100026 0.000833277 0
-0.0167308 0.00161882 0
-0.0169441 0.00227557 0
-0.0147952 0.00398968 0
-0.0100984 0.00282861 0
-0.0142822 0.000145687 0
-0.00536165 -0.00108327 0
-0.0133827 -0.0018242 0
-0.0090194 -0.00126542 0
-0.0162041 -4.22587e-05 0
-0.00985386 -0.0014377 0
-0.00965383 -0.00157326 0
-0.0139 -0.00444297 0
-0.00939496 -0.00375982 0
-0.00935969 -0.00524058 0
-0.00141995 -0.00818056 0
-0.00656289 -0.0113113 0
-0.00202534 -0.0046006 0
0.00109345 -0.00652783 0
0 -0.00909024 0
10.0039 -0.264899 0
9.69301 -0.336364 0
8.88909 -0.316286 0
9.69288 -0.171283 0
7.80338 -0.0465459 0
9.37606 -0.167025 0
8.00841 -0.0604648 0
7.5489 0.141704 0
8.12276 0.150714 0
8.37348 0.0941612 0
6.41675 0.33989 0
7.84532 0.230045 0
6.26076 0.0920793 0
5.05273 0.159573 0
6.18759 0.289209 0
3.84632 0.12049 0
4.45104 0.253766 0
2.95209 0.0532161 0
2.29408 -0.0602489 0
1.52928 0.147383 0
0.542821 0.102087 0
0.212264 0.0378133 0
0.0818115 -0.00930596 0
0.0164547 -0.0370378 0
0.00523602 -0.0275188 0
0.0167544 -0.105212 0
-0.0519036 -0.0558551 0
0.161325 -0.00853056 0
-0.0944614 -0.169347 0
-0.139044 -0.166134 0
-0.0324967 -0.17616 0
0.152517 -0.270046 0
-0.0608333 -0.3926 0
0.0764451 -0.360622 0
0.211031 -0.581056 0
0.250163 -0.735414 0
0.153557 -0.683515 0
0.362952 -0.712054 0
0.487286 -0.732337 0
0.660137 -0.512499 0
0.556202 -0.460307 0
0.433827 -0.848447 0
0.697493 -0.928983 0
0.665034 -0.658758 0
0.965091 -0.146439 0
1.1645 -0.288823 0
1.55115 -0.132579 0
1.75284 -0.149362 0
2.15529 -0.0540666 0
2.0568 0.0013352 0
2.17271 -0.354493 0
2.23152 0.0711951 0
2.44257 -0.148881 0
2.76729 -0.633442 0
2.33749 -0.0882779 0
2.1254 -0.183592 0
1.92183 -0.224605 0
1.95077 0.0985253 0
1.73279 0.0947902 0
1.69494 -0.312291 0
1.65414 -0.0439404 0
1.61471 -0.0375914 0
1.52866 0.0204913 0
1.48854 0.0241344 0
1.36867 0.0212746 0
1.42231 -0.0813058 0
1.42099 -0.0512265 0
1.40754 0.0229194 0
1.32868 0.136796 0
1.1311 0.207198 0
1.02213 0.184425 0
1.00284 -0.0322487 0
0.923892 -0.0193728 0
1.21183 0.0149788 0
1.20524 -0.0661497 0
1.50296 -0.103378 0
1.71631 -0.121959 0
2.17684 -0.0595421 0
2.07941 -0.0124173 0
1.9253 0.0807678 0
1.51725 0.180316 0
0.851073 0.606753 0
0.64432 0.767449 0
0.0675375 0.945119 0
-0.407939 1.7692 0
-0.708413 1.95984 0
-0.724828 2.12519 0
-0.838002 2.15993 0
-1.21783 2.15574 0
-1.32239 2.20921 0
-0.583299 2.11442 0
-0.631597 1.78447 0
-0.925272 1.55824 0
-1.22482 1.68192 0
-1.30718 1.80548 0
-1.37912 2.36005 0
-0.487335 3.00458 0
-1.63349 3.09046 0
-1.69766 4.01677 0
0.179559 5.58846 0
-0.0180425 4.58571 0
0.136157 3.36899 0
-0.0691804 3.71673 0
0.00385626 3.45418 0
-0.207401 2.87539 0
0.130049 1.73177 0
-0.0796579 1.10561 0
-0.0734398 0.224899 0
0.000670028 -0.848842 0
-0.40096 -1.35689 0
-1.01966 -1.03588 0
-1.25206 -1.16391 0
-1.02918 -0.847006 0
-1.33084 -1.36666 0
-1.41115 -0.922874 0
-1.97169 -0.379039 0
-2.53163 -1.02265 0
-2.3495 -1.03781 0
-1.47278 -0.48828 0
-0.944903 -0.0843045 0
-1.33888 0.0639334 0
-1.08622 -0.0453714 0
-0.666632 -0.0857061 0
-0.440099 -0.0474435 0
-0.297249 -0.0230425 0
-0.266439 0.0271444 0
-0.209786 0.00164784 0
-0.151432 0.0725539 0
-0.134007 0.107942 0
-0.241063 0.131966 0
-0.307654 0.126108 0
-0.226256 0.173865 0
-0.181317 0.216881 0
-0.175833 0.0854482 0
-0.131656 0.0661813 0
-0.105696 0.0738932 0
-0.0917567 0.120389 0
-0.105191 0.212511 0
-0.0931377 0.188751 0
-0.0599302 0.208887 0
-0.0612744 0.248301 0
-0.0645268 0.151009 0
-0.0405382 0.12754 0
-0.0225663 0.152833 0
-0.0141967 0.191135 0
-0.029808 0.180916 0
-0.0245963 0.185215 0
-0.0223567 0.16189 0
-0.0148031 0.140254 0
-0.00934194 0.108923 0
-0.00811018 0.0272323 0
-0.00333528 0.00994306 0
0.0135559 0.00318141 0
0.0127439 -0.0196013 0
0.00722944 -0.0389799 0
0.00320666 -0.0607101 0
0.0020042 -0.060331 0
-0.000920954 -0.074769 0
0.00376582 -0.0698873 0
0.00332293 -0.0603776 0
0.00798819 -0.0503043 0
-0.024081 -0.0390123 0
-0.0289286 -0.0290504 0
-0.0242586 -0.020467 0
-0.0177338 -0.016803 0
-0.011684 -0.0106983 0
-0.00899731 -0.0332366 0
-0.00958387 -0.029265 0
-0.00704162 -0.0138326 0
-0.00157748 -0.00890523 0
0.000679624 -0.0152814 0
-0.000894953 -0.0229607 0
0.000245026 -0.0158111 0
-0.0156498 -0.0125305 0
-0.0192335 -0.0161376 0
-0.0191202 -0.0140541 0
-0.0181333 -0.0071975 0
-0.0172595 -0.00383455 0
-0.0147242 -0.00243402 0
-0.0190595 -0.000837288 0
-0.0201286 -0.000419772 0
-0.0199995 0.000528847 0
-0.0234467 0.0013153 0
-0.0252591 0.00119788 0
-0.0219432 4.37983e-07 0
-0.0172998 0.00369465 0
-0.0200255 0.0011127 0
-0.0156332 0.000766504 0
-0.0144045 -0.000131956 0
-0.0107144 -7.31082e-05 0
-0.0109765 0.00132798 0
-0.0189539 0.000314067 0
-0.0110032 -0.000827522 0
-0.0127806 -0.00253809 0
-0.0134716 -0.00194588 0
-0.0144071 -0.00324149 0
-0.00830808 -0.00568858 0
-0.00120973 -0.00982675 0
0.00238076 -0.0109163 0
0.000525493 -0.0126131 0
0 -0.00677229 0
10.0039 -0.862516 0
9.86947 -0.327627 0
9.25924 -0.505901 0
9.49035 -0.594835 0
9.10775 -0.358035 0
9.18335 -0.576209 0
9.52289 -0.211923 0
8.16784 0.00786109 0
7.17413 0.0410763 0
7.75023 -0.0153238 0
6.61484 0.0494907 0
7.6502 0.0774159 0
6.08386 -0.077416 0
6.14169 0.212627 0
5.479 -0.100294 0
4.10643 0.394602 0
4.67401 0.249514 0
2.97987 0.196474 0
2.3566 0.22518 0
1.80206 0.144742 0
0.810294 0.122109 0
0.263106 0.00968203 0
0.0556153 -0.0213272 0
0.0735511 -0.0566731 0
0.000972756 -0.0447613 0
0.0180493 -0.138719 0
-0.0432283 -0.163551 0
0.0359023 -0.091909 0
0.00202929 -0.0845139 0
0.0705646 -0.178195 0
0.199552 -0.172652 0
-0.0653474 -0.303887 0
0.0555805 -0.375875 0
0.0567713 -0.302548 0
0.24844 -0.491745 0
0.701943 -0.580722 0
0.781473 -0.177399 0
1.08471 -0.268833 0
1.11588 -0.637077 0
1.1659 -0.761206 0
0.628053 -0.882211 0
0.583075 -0.969797 0
0.767701 -0.646889 0
1.67797 -0.639999 0
1.65723 -0.119704 0
1.64351 -0.0148598 0
1.91324 0.117165 0
2.13186 0.174752 0
2.28311 -0.0986306 0
2.41802 -0.282751 0
2.39574 -0.368659 0
2.38487 -0.303725 0
2.38236 -0.172661 0
2.66957 -0.263721 0
2.61671 -0.381599 0
2.24676 -0.120251 0
2.29109 -0.199831 0
2.0515 -0.0511745 0
1.84085 -0.140014 0
1.80449 -0.104614 0
1.73518 -0.110086 0
1.64485 -0.027764 0
1.67341 0.0374062 0
1.56434 0.0268057 0
1.42139 0.0353755 0
1.49571 -0.129806 0
1.60595 -0.0565446 0
1.73198 0.00165517 0
1.45233 0.136814 0
1.18052 0.291047 0
1.14988 0.151745 0
1.08912 0.0634674 0
1.29756 0.0717161 0
1.35599 0.0335748 0
1.66792 0.0658049 0
1.77442 0.00739628 0
2.0348 -0.0186091 0
2.25687 -0.034133 0
2.68664 0.0535565 0
2.83784 -0.0132549 0
2.71712 0.0774655 0
2.47023 0.0964184 0
2.56689 0.455646 0
1.75174 0.50423 0
1.00424 1.21091 0
0.335779 1.65902 0
-0.303926 1.77907 0
-0.263822 2.15787 0
-0.890093 2.38786 0
-1.25562 2.66382 0
-0.929086 2.05237 0
-1.24323 1.39904 0
-1.47217 1.89322 0
-1.17624 2.18551 0
-0.610103 2.65953 0
-0.435535 3.24316 0
-0.900256 3.57482 0
-1.25168 2.49026 0
-0.994787 5.25244 0
-0.850794 5.04443 0
-0.812919 2.95591 0
-0.917789 3.66765 0
-0.886522 2.14721 0
-0.833547 2.45367 0
-0.798958 2.66504 0
-1.11732 2.39149 0
-1.09922 0.840659 0
-1.8264 0.304115 0
-2.27068 -0.318214 0
-2.28121 -0.89114 0
-2.68231 -1.40411 0
-3.49324 -1.7116 0
-2.83784 -1.41538 0
-2.44462 -0.776138 0
-2.11078 -0.676157 0
-1.86852 -1.0232 0
-1.72587 -0.792318 0
-2.38946 -0.617204 0
-2.12259 -0.484333 0
-1.18169 -0.16668 0
-0.938971 -0.0261495 0
-1.07459 -0.0316365 0
-0.79163 -0.137972 0
-0.570985 -0.0769484 0
-0.325251 -0.0655618 0
-0.264678 -0.015048 0
-0.222142 -0.0119068 0
-0.121737 0.125231 0
-0.0258891 0.119877 0
-0.155667 0.0944296 0
-0.452026 0.129084 0
-0.41084 0.172047 0
-0.340139 0.114912 0
-0.270471 0.0593679 0
-0.257156 0.160208 0
-0.267671 0.122868 0
-0.184898 0.12852 0
-0.123356 0.241125 0
-0.0871125 0.362262 0
-0.022052 0.359586 0
-0.0693779 0.314153 0
-0.107576 0.314774 0
-0.0942707 0.215624 0
-0.0650783 0.184487 0
-0.0499337 0.220943 0
-0.0322864 0.0953332 0
-0.0908701 0.179077 0
-0.0606424 0.181933 0
-0.0255567 0.101413 0
-0.01473 0.123581 0
-0.008541 0.0579264 0
-0.00634893 0.0199702 0
-0.00981052 0.00481546 0
-0.00233064 -0.00797586 0
0.0063433 0.00684328 0
0.0114414 -0.0255834 0
0.00268727 -0.0768182 0
-0.00616336 -0.0612573 0
-0.00426041 -0.0404406 0
-0.0111096 -0.0551514 0
0.00924747 -0.0862257 0
0.00391465 -0.0747655 0
-0.00069796 -0.053365 0
0.00530236 -0.0402209 0
0.00812966 -0.0269896 0
-0.0391869 -0.0193893 0
-0.0443079 -0.0100673 0
-0.034764 -0.011474 0