<?xml version="1.0"?>
<VTKFile type="StructuredGrid"  version="0.1" byte_order="LittleEndian" compressor="vtkZLibDataCompressor">
  <StructuredGrid WholeExtent="0 200 0 20 0 0">
    <Piece Extent="0 200 0 20 0 0">
      <PointData Vectors="Velocity">
        <DataArray type="Float32" Name="Velocity" NumberOfComponents="3" format="ascii">
10.0039 -1.64373 0
10.4048 -1.74083 0
10.5068 -1.69207 0
10.0393 -1.48196 0
10.6434 -1.41232 0
10.1416 -1.20041 0
10.8137 -0.50487 0
10.0898 -0.520062 0
10.5578 0.112017 0
11.3951 -0.067478 0
11.9081 -0.2932 0
11.843 -0.110913 0
11.127 -0.0910915 0
11.0835 0.201937 0
11.8953 0.0737775 0
12.5314 -0.878901 0
12.0638 -0.397719 0
11.6624 -0.13711 0
11.3257 -0.0632534 0
10.7979 0.129625 0
10.0959 0.375564 0
10.2184 -0.0769321 0
9.22837 1.13604 0
8.68474 0.692089 0
8.29724 1.692 0
7.05563 1.82903 0
8.21189 2.15573 0
7.30667 1.86452 0
7.56992 1.68998 0
6.95663 1.68505 0
6.13849 1.45075 0
5.77673 1.03449 0
5.09902 0.749489 0
4.25031 0.331774 0
3.49002 0.135823 0
2.73013 0.0744871 0
1.90657 -0.93165 0
1.45055 -0.631248 0
1.52231 -0.356319 0
1.24907 -0.262582 0
1.29473 -0.0225673 0
1.50089 -0.21855 0
1.53952 -0.3481 0
1.68452 -0.214066 0
1.7608 -0.272315 0
1.6653 -0.075503 0
2.0611 0.0213641 0
2.4307 0.113372 0
2.33152 0.0252782 0
2.29089 0.0577882 0
2.31517 0.0467424 0
2.30142 0.0971105 0
2.55552 0.0606986 0
2.78212 0.0463189 0
2.81024 0.161814 0
2.32291 0.383364 0
2.02422 0.717425 0
1.39092 1.18552 0
0.627604 1.48489 0
0.104588 1.87161 0
-0.255438 1.93598 0
-0.580616 1.54948 0
-0.784362 1.05055 0
-0.986138 1.10141 0
-0.959728 1.24474 0
-0.663065 1.3983 0
-0.498194 1.48073 0
-0.291499 1.36296 0
-0.201185 1.27083 0
-0.267777 1.20492 0
-0.330249 1.12177 0
-0.415772 1.13277 0
-0.35968 1.47938 0
-0.422418 1.26675 0
-0.56332 1.45744 0
-0.439536 1.63423 0
-0.462727 1.85598 0
-0.49599 2.1494 0
-0.3342 2.15265 0
-0.283465 2.32333 0
-0.481875 2.16141 0
-0.266023 2.39599 0
-0.298723 2.51096 0
-0.204173 2.56894 0
-0.24354 2.80236 0
-0.123977 2.50611 0
-0.180275 2.62283 0
-0.114675 2.82771 0
-0.0817691 2.81922 0
-0.0762016 2.95146 0
-0.00909145 2.79787 0
-0.110048 3.03064 0
0.0333602 3.04447 0
0.0737039 2.95701 0
0.141061 3.02124 0
0.282658 2.78804 0
0.348543 2.76009 0
0.422455 2.60464 0
0.348959 2.34438 0
0.341297 2.37173 0
0.430731 2.29651 0
0.486225 2.26066 0
0.368811 2.23067 0
0.497277 2.08971 0
0.551564 2.12998 0
0.544664 1.8906 0
0.55388 1.77095 0
0.521133 1.45635 0
0.404761 1.23392 0
0.349958 1.03157 0
0.261948 0.883112 0
0.196137 0.831323 0
0.14329 0.723873 0
0.241955 0.611019 0
0.23876 0.586342 0
0.18419 0.443294 0
0.127072 0.403402 0
0.121808 0.4024 0
0.0988154 0.325731 0
-0.00736616 0.328326 0
-0.0151123 0.362477 0
-0.0287553 0.324793 0
-0.0133104 0.359426 0
0.0170894 0.352266 0
0.0183748 0.280963 0
0.00327983 0.266016 0
0.0215951 0.174111 0
0.00971853 0.210518 0
0.00215937 0.156112 0
0.0131583 0.116322 0
0.0144549 0.157675 0
-0.0215148 0.0391764 0
0.0447687 0.125384 0
-0.0818483 -0.171188 0
-0.620524 0.479151 0
-0.26358 1.38379 0
0.590651 2.30761 0
0.457368 -0.732107 0
-0.404304 -0.0727557 0
-0.0801442 0.102017 0
-0.0298877 0.0361314 0
-0.0421258 0.0585108 0
-0.0497722 0.0584634 0
-0.027739 0.0437934 0
-0.0292374 0.0407245 0
-0.0114709 0.0384452 0
0.00228826 0.0523788 0
0.0107295 0.0555227 0
0.0168466 0.0532782 0
0.0214627 0.0300418 0
0.0222982 0.0322639 0
0.0249532 0.0206203 0
0.023783 0.0059598 0
0.0309753 0.0111644 0
0.0393637 -0.00973117 0
0.0280413 -0.0330333 0
0.0201606 -0.0467383 0
0.00714063 -0.0330657 0
0.00160572 -0.0388705 0
-0.00182447 -0.0355091 0
-0.00251232 -0.0389826 0
-0.0014054 -0.0384805 0
0.00147159 -0.0523563 0
-0.0177596 -0.0662082 0
-0.0175359 -0.0463074 0
-0.0360393 -0.0381305 0
-0.0332541 -0.0263203 0
-0.0207691 -0.0167087 0
-0.0139413 -0.0117811 0
-0.00862415 -0.016092 0
-0.0114855 -0.0116033 0
-0.0100426 -0.00362881 0
-0.00954391 -0.00689276 0
-0.00719627 -0.00348321 0
-0.00438206 -0.00188695 0
-0.00195729 -0.000680703 0
-0.000644689 0.000453668 0
5.19693e-05 0.00147832 0
-0.000721004 0.00150185 0
-0.000309165 0.00083393 0
0.000315941 0.00188488 0
0.00187101 0.000567451 0
0.000850308 -9.76908e-05 0
0.000817475 0.00120255 0
-0.000832474 -0.000316258 0
0.000712968 0.00312101 0
0.000612901 0.00129907 0
4.17875e-05 -0.000997115 0
-0.00151012 0.00185461 0
0.00190633 0.00494863 0
0.000976457 0.00371753 0
0.00457168 8.09283e-05 0
0.00425804 0.00355724 0
0.00206836 0.00132382 0
-0.00022542 9.87001e-05 0
0.00224309 -0.000552965 0
0.00417946 -0.000345817 0
0.0017179 -0.000214164 0
0.000512334 0.000243098 0
-0.000809986 -7.87466e-05 0
0 6.27329e-05 0
10.0039 -1.68783 0
10.0111 -1.63826 0
9.44919 -1.60886 0
9.40948 -1.49347 0
10.3936 -1.14918 0
9.28882 -1.08002 0
10.6314 -0.848879 0
11.6291 -0.241811 0
11.3526 -0.0973099 0
11.1373 -0.351564 0
11.2881 -0.281249 0
11.4679 -0.253774 0
11.1206 -0.216946 0
10.9516 -0.226638 0
10.9337 -0.180582 0
11.4669 -0.495344 0
11.3407 -0.359742 0
12.58 -0.233731 0
11.6506 -0.245735 0
11.4314 -0.0546856 0
10.7563 0.150992 0
10.2246 0.109655 0
9.72444 0.937177 0
9.02127 0.672413 0
8.89075 1.23522 0
8.18565 1.70439 0
7.76956 1.95374 0
7.38108 1.97653 0
7.21818 1.83566 0
6.77868 1.59915 0
5.86469 1.39896 0
5.48528 0.886942 0
4.81485 0.405862 0
3.79738 0.157471 0
2.82046 0.0345573 0
2.13721 -0.190871 0
1.67348 -0.85502 0
1.49933 -0.811249 0
1.29505 -0.489944 0
1.30155 -0.0364132 0
1.36183 -0.0536003 0
1.47367 -0.1508 0
1.5179 -0.345023 0
1.82192 -0.237171 0
1.77869 -0.150823 0
1.98295 -0.0836376 0
2.06264 -0.00453594 0
2.33399 0.013413 0
2.32262 -0.0341811 0
2.43685 0.0539018 0
2.37151 0.0865646 0
2.41112 0.207662 0
2.53627 0.158598 0
2.73343 0.101142 0
2.67493 -0.0185056 0
2.56361 0.0935834 0
2.19512 0.306662 0
1.9119 0.609251 0
1.30333 1.01399 0
0.462926 1.47231 0
-0.174617 1.39043 0
-0.73775 1.18278 0
-0.963003 0.956637 0
-0.893237 0.943187 0
-0.700872 1.30426 0
-0.563774 1.44853 0
-0.593578 1.44304 0
-0.373645 1.43474 0
-0.28056 1.14802 0
-0.250675 1.2144 0
-0.251951 1.09994 0
-0.219737 1.19975 0
-0.161797 1.51813 0
-0.305286 1.16279 0
-0.354663 1.55951 0
-0.349668 1.76317 0
-0.329224 1.93812 0
-0.223114 2.04804 0
-0.22094 2.19443 0
-0.188143 2.21113 0
-0.194861 2.27608 0
-0.243016 2.27737 0
-0.253161 2.54744 0
-0.205684 2.62142 0
-0.152149 2.74442 0
-0.161232 2.64968 0
-0.103347 2.62775 0
-0.104302 2.77592 0
-0.104529 2.80678 0
-0.0771602 2.96414 0
0.00096338 2.75394 0
0.0552561 2.97192 0
0.0678432 2.96154 0
0.137193 2.88675 0
0.174596 2.93034 0
0.14547 2.86319 0
0.126209 2.70325 0
0.121229 2.56718 0
0.1508 2.47337 0
0.334986 2.39663 0
0.230722 2.28561 0
0.21499 2.16266 0
0.287547 2.21753 0
0.321474 1.98779 0
0.366345 1.98521 0
0.297945 1.85078 0
0.358044 1.64408 0
0.192948 1.34911 0
0.100013 1.24446 0
0.116508 1.09514 0
0.0959507 0.950729 0
0.161831 0.849949 0
0.164182 0.77462 0
0.133835 0.674864 0
0.125111 0.528636 0
0.0814305 0.521455 0
0.0535617 0.471123 0
0.0586959 0.425152 0
0.0479748 0.367955 0
0.0360667 0.372232 0
0.0182024 0.407522 0
0.00223826 0.411498 0
-0.00233122 0.325054 0
-0.00526433 0.330152 0
-0.0026707 0.280235 0
0.0083779 0.273953 0
-0.00183893 0.245634 0
-0.00425049 0.205873 0
0.00631862 0.205378 0
0.0113353 0.15737 0
-0.0165692 0.133532 0
-0.0432455 0.0446172 0
-0.106339 0.133932 0
0.0967817 -0.121763 0
0.246815 0.427448 0
0.221049 1.62236 0
-0.40541 1.05496 0
-0.485595 0.121118 0
-0.0700504 -0.121935 0
-0.0208593 0.115407 0
-0.0192406 0.0372811 0
-0.0167036 0.0396485 0
-0.051138 0.0603844 0
-0.0412532 0.0511872 0
-0.0381266 0.0499948 0
-0.0183863 0.05754 0
0.0052815 0.0679214 0
0.020915 0.0481489 0
0.0312926 0.0529897 0
0.0309825 0.0326044 0
0.0271992 0.0289131 0
0.0140616 0.0228642 0
0.0286553 0.00598445 0
0.0202923 -0.00435119 0
0.0201212 -0.00725778 0
0.0184611 -0.0179144 0
0.0132981 -0.0308253 0
0.00677173 -0.0396543 0
0.00638429 -0.0361125 0
0.000596376 -0.0346866 0
-0.00415787 -0.0438499 0
-0.00332038 -0.0435422 0
-0.00881783 -0.0463868 0
-0.0117381 -0.0626366 0
-0.01257 -0.0503545 0
-0.0140334 -0.038404 0
-0.01726 -0.0255544 0
-0.0190215 -0.0165333 0
-0.0145147 -0.0123462 0
-0.0107628 -0.0131124 0
-0.00684844 -0.0115927 0
-0.00872966 -0.00660706 0
-0.00689619 -0.00628061 0
-0.00558213 -0.00370574 0
-0.00363119 -0.00157667 0
-0.00210705 -0.000492163 0
-0.000933283 0.000338527 0
-0.000454087 0.00151254 0
-0.000143397 0.00176025 0
-2.37922e-05 0.00183371 0
-0.000116697 0.00179405 0
0.00127562 0.00222521 0
0.00115586 0.00091402 0
0.000657911 0.000372871 0
0.00106067 -0.000238908 0
0.00028797 0.00260598 0
0.00111123 5.77527e-05 0
0.000932506 0.000904079 0
0.00129374 0.00334557 0
0.000559718 0.00373438 0
0.000851282 0.00527585 0
0.0036896 0.00203552 0
0.0037005 0.001945 0
0.00221964 0.00123499 0
0.000854066 0.000552027 0
0.000717697 -0.00030167 0
0.00276173 -0.000429096 0
0.0020163 -0.000504092 0
0.000904751 -0.000584864 0
-0.000622131 -2.14755e-05 0
0 0.000308787 0
10.0039 -1.74783 0
9.51109 -1.64463 0
10.735 -1.39211 0
10.736 -1.41018 0
10.9698 -0.5553 0
10.8578 -0.414707 0
10.8317 -0.456039 0
11.0177 -0.444839 0
10.8236 -0.44247 0
11.437 -0.361412 0
11.3035 -0.442745 0
11.4545 -0.255657 0
11.32 -0.26857 0
11.6049 -0.288782 0
11.9729 -0.38726 0
11.4823 -0.26538 0
11.4829 -0.183518 0
11.6776 -0.0764759 0
11.4381 -0.475714 0
11.855 -0.280394 0
11.2256 -0.141363 0
10.7266 0.044685 0
10.1046 0.429059 0
9.61488 0.740326 0
8.8595 0.809833 0
8.70149 1.35092 0
7.96823 1.69736 0
7.26363 1.52007 0
7.10556 1.65909 0
6.33824 1.53468 0
5.57038 1.20805 0
5.11008 0.605517 0
4.69362 0.233173 0
3.47537 0.183301 0
2.3353 0.0547048 0
1.77341 -0.381627 0
1.63168 -0.589997 0
1.6391 -0.782304 0
1.37871 -0.425948 0
1.40216 -0.143807 0
1.4975 0.0183435 0
1.57121 0.0250472 0
1.63091 -0.0660718 0
1.63832 -0.414799 0
1.78517 -0.0216837 0
2.05851 0.00874725 0
1.95013 -0.14002 0
1.99908 0.0826531 0
2.1372 0.0325782 0
2.52985 0.10036 0
2.45511 0.187877 0
2.55448 0.181124 0
2.62331 0.204996 0
2.88788 0.128148 0
2.82267 0.00532035 0
2.70047 -0.0194692 0
2.68446 0.125487 0
2.33675 0.370599 0
1.80119 0.463498 0
0.976418 0.646324 0
0.0554467 0.567432 0
-0.629693 0.748092 0
-0.903624 0.714092 0
-0.791888 0.867221 0
-0.712105 1.35617 0
-0.626497 1.45984 0
-0.460154 1.42144 0
-0.418227 1.31721 0
-0.32316 1.20106 0
-0.260852 1.10068 0
-0.370286 1.08602 0
-0.295555 1.16886 0
-0.334683 1.29335 0
-0.306552 1.253 0
-0.165424 1.54804 0
-0.0935062 1.65206 0
-0.108563 1.73699 0
-0.145987 2.06466 0
-0.253801 2.09529 0
-0.165834 2.43074 0
-0.209434 2.19067 0
-0.114927 2.4543 0
-0.17052 2.45814 0
-0.17942 2.5415 0
-0.190718 2.74677 0
-0.153782 2.73932 0
0.00832635 2.83627 0
0.032935 2.83224 0
0.0571708 2.82004 0
0.0234609 2.8591 0
0.0947763 2.70846 0
0.167448 2.72097 0
0.172787 2.5532 0
-0.0369919 2.59306 0
0.0259017 2.66872 0
0.0728147 2.6573 0
0.0966312 2.54395 0
0.0874735 2.52646 0
0.063979 2.48942 0
0.0761535 2.39253 0
0.162666 2.28942 0
0.21239 2.22836 0
0.209791 2.07756 0
0.221669 1.93841 0
0.208503 1.97849 0
0.218452 1.76005 0
0.00099845 1.49215 0
-0.00712209 1.34698 0
0.0259804 1.18097 0
0.00782196 1.06655 0
-0.00337084 0.963572 0
0.00493897 0.821161 0
0.016201 0.775669 0
0.0705919 0.677183 0
0.0379493 0.572128 0
0.0268776 0.509496 0
0.0156898 0.460504 0
0.00756789 0.454388 0
0.00736583 0.427196 0
0.0121288 0.396373 0
0.0258963 0.362604 0
0.00820304 0.362242 0
-0.00906253 0.334728 0
-0.0228294 0.301267 0
-0.0418513 0.30815 0
-0.0185089 0.197109 0
-0.0323004 0.227905 0
-0.00691115 0.205804 0
0.00817195 0.211495 0
-0.00369541 0.143341 0
-0.0216914 0.130894 0
-0.0442372 0.0420653 0
-0.159349 0.0512909 0
0.0642057 -0.0122772 0
0.191665 0.0500192 0
0.101379 1.08512 0
-0.294508 0.554019 0
-0.16302 0.00954131 0
-0.0350173 0.0183228 0
0.050032 0.0849062 0
-0.0494501 0.0396881 0
-0.0853378 0.0440419 0
-0.0517718 0.0708198 0
-0.0289089 0.0679722 0
-0.0209817 0.0635637 0
-0.00538975 0.0417157 0
0.00860874 0.0534638 0
0.0179738 0.0395021 0
0.0230142 0.060324 0
0.0225173 0.0317921 0
0.0141955 0.0203604 0
0.011132 0.01787 0
0.00840468 0.00194436 0
0.00657608 -0.014121 0
0.00327987 -0.0162883 0
0.0070849 -0.0178271 0
0.00844343 -0.029866 0
0.0035461 -0.0404429 0
0.00333784 -0.0336051 0
-0.00328631 -0.043531 0
-0.00757353 -0.0457443 0
-0.00888039 -0.0504086 0
-0.00659648 -0.0508203 0
-0.00550675 -0.0492941 0
-0.00419249 -0.0424543 0
-0.00395595 -0.0345263 0
-0.00717575 -0.0277133 0
-0.00500099 -0.0178569 0
-0.0140189 -0.0133883 0
-0.0108837 -0.00786071 0
-0.00646369 -0.0152803 0
-0.00686616 -0.00861888 0
-0.00615298 -0.00676032 0
-0.00487237 -0.00399363 0
-0.00358519 -0.00208332 0
-0.00158054 -0.000563571 0
-0.000481511 -0.000430949 0
-0.00130316 -0.000539565 0
-0.000922002 0.000777871 0
-6.81627e-05 0.000611026 0
0.000798914 0.000545089 0
0.00105173 0.00267296 0
0.000159435 0.00124292 0
0.00342745 0.00118343 0
0.00161913 0.0011374 0
0.000534852 0.00273163 0
-0.00133383 0.00108395 0
0.00130305 0.00298767 0
0.000560145 0.00420488 0
0.00312798 0.00420761 0
0.00321881 0.0048091 0
0.00181641 0.00322994 0
0.00237187 0.00110865 0
0.00183122 0.00022038 0
0.00140643 0.000769327 0
0.00109231 0.000178914 0
0.00204729 -0.000172615 0
0.00153461 -0.000496574 0
0.000222087 -0.000261301 0
0.00114758 -0.000422902 0
0 -0.00056316 0
10.0039 -0.833118 0
10.4202 -1.02591 0
9.97096 -1.02818 0
10.8828 -0.752103 0
10.4163 -0.521928 0
11.6014 -0.410754 0
10.5151 -1.10569 0
11.4478 -0.819312 0
10.4575 -0.7802 0
11.6129 -0.554383 0
11.4027 -0.340719 0
12.0873 -0.346883 0
12.0295 -0.252983 0
11.6815 -0.326548 0
11.8723 -0.294733 0
12.0259 -0.245031 0
11.6331 -0.296891 0
11.776 -0.293704 0
11.8144 -0.104642 0
11.9868 -0.489387 0
11.8471 -0.304029 0
11.67 -0.107223 0
11.2385 0.121831 0
10.6559 0.378936 0
10.5395 0.325794 0
10.1794 1.57172 0
8.748 0.904145 0
7.95571 0.650325 0
8.36301 1.22406 0
8.47977 1.06558 0
8.26 0.618039 0
7.69692 0.215865 0
6.67893 0.0314389 0
5.65685 -0.045479 0
4.53315 -0.187076 0
3.64982 -0.423716 0
3.53426 -0.358535 0
3.49805 -0.563421 0
3.48761 -0.49906 0
3.37425 -0.212676 0
3.4633 -0.0678238 0
3.40452 -0.0479868 0
3.39813 -0.186581 0
3.30291 -0.164159 0
3.2689 -0.210094 0
3.11189 0.0140907 0
2.99307 0.00104739 0
2.84292 0.0739558 0
2.93225 0.0475535 0
2.71765 0.164128 0
2.5882 0.250421 0
2.69273 0.377804 0
2.69119 0.256474 0
2.84505 0.183722 0
3.05456 -0.0384094 0
3.03116 -0.036446 0
3.04923 -0.0231875 0
2.79296 0.0222987 0
2.49242 -0.0979243 0
1.7753 0.134038 0
0.71659 -0.271066 0
-0.0431479 0.0449574 0
-0.745714 0.525725 0
-0.648314 0.851117 0
-0.639534 1.3055 0
-0.59369 1.48276 0
-0.488286 1.34669 0
-0.467765 1.35386 0
-0.466353 1.28728 0
-0.307404 1.20066 0
-0.252263 1.12374 0
-0.17661 1.13258 0
-0.267803 1.27117 0
-0.179947 1.28011 0
-0.136161 1.42086 0
-0.177885 1.77105 0
-0.189059 1.72316 0
-0.0960677 2.05061 0
-0.0946306 1.97347 0
-0.18386 2.32036 0
-0.280962 2.50225 0
-0.117291 2.42233 0
-0.107241 2.51019 0
0.00353953 2.71327 0
0.0871396 2.73991 0
0.0758874 2.73235 0
0.0348351 2.92917 0
0.0196321 2.68675 0
0.020307 2.68254 0
0.090498 2.57801 0
0.0163471 2.55461 0
-0.0268347 2.51929 0
0.0534825 2.5577 0
0.0662657 2.69786 0
0.0703729 2.87871 0
0.0962464 2.73772 0
0.145838 2.45084 0
0.128825 2.36204 0
0.0746363 2.1973 0
0.129604 2.24493 0
0.0478521 2.21921 0
0.212226 2.06723 0
0.193134 2.03148 0
0.15833 1.97635 0
0.211465 2.01495 0
0.276554 1.82063 0
0.377696 1.47079 0
0.489823 1.23771 0
0.313588 1.0199 0
0.110295 0.865994 0
0.046381 0.767589 0
-0.0107461 0.656405 0
-0.00801679 0.695863 0
-0.0175543 0.619683 0
-0.00489553 0.594134 0
-0.00961496 0.55924 0
-0.0190371 0.534128 0
-0.00308226 0.520174 0
-0.000737322 0.368838 0
-0.00463061 0.362405 0
-0.00490073 0.410253 0
-0.00726581 0.323842 0
-0.0152827 0.35176 0
0.0189234 0.297423 0
-0.0102348 0.209781 0
-0.0170221 0.209614 0
0.00496877 0.217144 0
-0.0303948 0.196116 0
-0.0399046 0.219301 0
-0.00498404 0.150727 0
-0.0200995 0.154651 0
-0.0236346 0.0712942 0
-0.10086 0.0405376 0
-0.204381 -0.0192565 0
-0.119276 0.0321996 0
0.0394787 0.169234 0
-0.0960209 0.379701 0
-0.0946557 -0.228114 0
0.099092 -0.0458296 0
0.0323955 0.00993913 0
-0.0989649 0.00969345 0
-0.0626 0.0974961 0
-0.0398137 0.0691449 0
-0.0216192 0.0493557 0
-0.0103594 0.0397859 0
-0.0103761 0.0151104 0
-0.00770736 0.0617391 0
-0.00358922 0.0266062 0
-0.00169968 0.0331016 0
-0.00181905 0.035985 0
0.00159085 0.0221923 0
-0.00209137 0.00778948 0
-0.00465781 -0.0011572 0
-0.00433211 -0.00996312 0
-0.00118395 -0.0102122 0
-0.000114934 -0.0123436 0
-0.00119862 -0.0136621 0
-0.00148866 -0.0273227 0
0.00357496 -0.0360402 0
-0.00799127 -0.0503566 0
-0.011303 -0.0471992 0
-0.0115111 -0.0464972 0
-0.00632926 -0.0426844 0
-0.00288855 -0.0420705 0
-0.00174478 -0.0341079 0
-0.00298224 -0.0230947 0
-0.00970628 -0.0208291 0
-0.0066265 -0.0208401 0
-0.00119269 -0.0134968 0
-0.0156135 -0.00900274 0
-0.0113358 -0.00527772 0
-0.0108276 -0.010042 0
-0.010228 -0.00689063 0
-0.00557184 -0.00545057 0
-0.00438974 -0.00195319 0
-0.00293396 -0.00113411 0
-0.00158512 -0.000889287 0
-0.00102748 -0.000186183 0
-0.000251202 0.00119859 0
-0.000864048 0.000231932 0
0.00058087 0.00192584 0
-2.3273e-05 0.0011677 0
0.00374241 0.00194838 0
0.00361101 -0.000313767 0
0.00265613 0.000930139 0
0.00103954 -0.00106301 0
0.00149876 0.00243264 0
0.00153232 0.00571043 0
0.000975701 0.00171829 0
0.00049115 0.00540698 0
0.00166137 0.00366288 0
0.000555639 0.00352187 0
0.00142417 0.00164448 0
5.64042e-05 0.00123325 0
0.00185129 0.000432534 0
0.000399899 -0.000155903 0
0.00145481 -4.48949e-05 0
0.00165051 0.000216443 0
0.00109948 -0.000523962 0
0.00114967 -0.00126383 0
0 -0.000794534 0
10.0039 -1.13117 0
9.98956 -0.822382 0
10.0046 -0.681205 0
11.266 -0.671645 0
10.3366 -0.824798 0
11.3377 -1.07157 0
10.9801 -0.258021 0
11.8363 -0.404594 0
11.8464 -0.81766 0
11.7089 -0.283652 0
13.1108 -0.667754 0
11.7168 -0.336667 0
12.3443 -0.0138118 0
12.1747 -0.540991 0
12.1066 -0.0201362 0
11.9428 -0.113716 0
11.5836 -0.51113 0
12.3841 -0.388703 0
12.0409 -0.175832 0
11.9452 -0.257792 0
12.1981 -0.194565 0
12.5964 -0.0246056 0
12.5957 -0.0394047 0
12.1699 0.187188 0
11.9787 0.127305 0
11.9184 0.482393 0
11.1923 0.337645 0
10.8589 0.444416 0
10.8894 1.26409 0
10.3231 0.921714 0
9.59046 0.638935 0
8.84293 0.260347 0
8.20884 0.175454 0
7.66677 0.0259397 0
7.11936 0.0332899 0
6.95593 -0.245164 0
6.76636 -0.112791 0
6.88787 -0.357304 0
7.2808 0.0561502 0
7.59507 0.0468969 0
7.56199 0.0999938 0
7.70016 -0.0540426 0
7.57053 -0.0224 0
7.59217 0.117776 0
7.34322 -0.115495 0
6.9059 -0.155013 0
6.76662 -0.0156985 0
6.50299 -0.136411 0
6.21388 -0.07679 0
5.95292 -0.0808144 0
6.00476 -0.0453322 0
5.66612 0.425075 0
5.48405 0.0997732 0
5.46098 0.207945 0
5.03643 -0.153543 0
4.87766 -0.1668 0
4.57978 -0.158061 0
4.25826 -0.192543 0
4.07967 -0.146613 0
3.97517 -0.35519 0
3.38624 -0.549966 0
2.55794 -0.575114 0
1.75657 0.0865391 0
0.783526 0.601659 0
0.263911 1.12557 0
-0.112969 1.31817 0
-0.382273 1.26713 0
-0.380844 1.31061 0
-0.415366 1.1838 0
-0.327013 1.20068 0
-0.258055 1.17954 0
-0.239309 1.17071 0
-0.0941837 1.21082 0
-0.0587722 1.33523 0
-0.0166168 1.49173 0
-0.0437202 1.82216 0
-0.0214109 1.88245 0
0.0439769 2.01236 0
-0.0168905 2.02556 0
-0.0286938 2.12844 0
-0.128282 2.41841 0
-0.08383 2.46459 0
0.0532544 2.41743 0
0.0544508 2.75568 0
0.117197 2.75454 0
0.0419045 2.34774 0
0.0296889 2.63243 0
-0.0246438 2.40235 0
-0.0462883 2.34203 0
-0.0856379 2.53788 0
0.0121773 2.49912 0
0.0407405 2.60387 0
0.0538431 2.45162 0
0.124367 2.46563 0
0.0842731 2.44378 0
-0.0272052 2.35846 0
-0.0154755 2.30192 0
0.0592362 2.26862 0
0.156756 2.30772 0
0.15743 2.11764 0
0.105375 2.13687 0
0.115971 2.06362 0
0.141548 1.83255 0
0.143067 1.86587 0
0.160833 1.6303 0
0.0993571 1.74922 0
0.0847146 1.23527 0
0.185295 1.14295 0
0.164549 0.861527 0
0.120114 0.642699 0
0.0818161 0.701637 0
0.0398478 0.650985 0
0.0256373 0.535624 0
0.0143608 0.495113 0
-0.0385433 0.490728 0
-0.0213584 0.465129 0
-0.00814186 0.487559 0
-0.0173696 0.42322 0
-0.0199844 0.395718 0
-0.00526145 0.45279 0
-0.00251319 0.382988 0
0.00415583 0.353431 0
0.00173223 0.334992 0
0.00556927 0.25783 0
-0.0169604 0.225332 0
-0.0404193 0.187464 0
-0.0490007 0.23106 0
-0.0405781 0.199673 0
-0.0410794 0.206997 0
0.0115332 0.194331 0
-0.00761659 0.137312 0
-0.0105254 0.13406 0
-0.0485597 0.00273068 0
-0.106769 -0.0308674 0
-0.138134 -0.148979 0
-0.104628 -0.237586 0
-0.0245369 -0.175314 0
0.0693045 -0.0898113 0
0.0311422 -0.0754262 0
0.0133416 -0.0413056 0
-0.103591 0.0770717 0
-0.0630772 0.0962115 0
-0.0348054 0.0566783 0
-0.00816531 0.051106 0
0.00799541 0.0327652 0
-0.0192698 0.0135841 0
-0.0239417 0.0262471 0
-0.0277326 0.0201455 0
-0.0237146 0.0248579 0
-0.0148351 0.0253795 0
-0.0117451 0.0208455 0
-0.0127684 0.0167864 0
-0.0103017 -0.0022757 0
-0.00617659 -0.00473048 0
-0.00578367 -0.0113237 0
-0.0071437 -0.0121626 0
-0.00671096 -0.0202469 0
-0.00670471 -0.00602599 0
-0.00487784 -0.0112599 0
-0.00544057 -0.0355319 0
-0.00761496 -0.0487569 0
-0.0073361 -0.0571668 0
-0.0126063 -0.047611 0
-0.00560642 -0.027106 0
0.000743966 -0.0427839 0
-0.01158 -0.0332187 0
-0.0220223 -0.020569 0
-0.0167762 -0.0155507 0
-0.00685132 -0.00900355 0
-0.00868369 -0.00796697 0
-0.0168402 -0.00350662 0
-0.0141979 -0.00783712 0
-0.0136775 -0.00568082 0
-0.00856995 -0.00718381 0
-0.00617027 -0.00443336 0
-0.00450999 -0.00225025 0
-0.00277773 -0.00121186 0
-0.00145259 -0.000885995 0
-0.000739819 -0.000195274 0
-0.000585485 0.00102735 0
0.000460815 0.00040983 0
0.00104187 0.00382473 0
0.00161638 0.000456053 0
0.00270698 0.000711568 0
0.00304568 0.00397586 0
0.00139813 0.00250144 0
0.00097846 0.00139579 0
0.00113563 0.00429054 0
0.00115992 0.00187305 0
0.00123245 0.00268341 0
0.00134931 0.00389645 0
0.00242786 0.00240582 0
0.000912455 0.00131393 0
0.00129335 0.000561286 0
0.000985657 0.000821216 0
0.000946976 6.13036e-05 0
0.00341339 0.000138398 0
0.00159867 9.54759e-05 0
0.000641405 -0.000121032 0
0.000698622 -0.00113892 0
0 -0.000687626 0
10.0039 -0.935301 0
10.4525 -0.683158 0
11.3935 -0.314597 0
11.8267 -0.712701 0
11.5213 -1.03839 0
11.5969 -0.377243 0
11.2212 -0.566388 0
11.4692 -0.612058 0
11.2676 -0.300517 0
11.2597 -0.330749 0
12.4533 -0.111847 0
10.9162 -0.187401 0
13.808 -0.16858 0
12.6539 -0.391939 0
12.5525 -0.613797 0
12.9176 -0.200251 0
12.5671 -0.157797 0
12.2289 -0.617838 0
12.8736 -0.24973 0
12.2815 0.0478834 0
12.1041 0.0383219 0
12.5959 -0.109974 0
12.4906 -0.0267678 0
12.342 0.0698111 0
12.3229 0.177715 0
11.842 0.224269 0
11.4144 0.0958705 0
11.4919 0.0460139 0
11.402 -0.0513245 0
10.9626 0.734042 0
10.2893 0.434062 0
9.83807 0.128954 0
9.13306 0.116224 0
8.19467 0.0755194 0
7.91284 -0.114919 0
8.05333 -0.0108358 0
8.27854 -0.188236 0
8.50344 0.097309 0
8.41278 0.133787 0
8.12696 0.138181 0
8.09725 0.138741 0
7.91209 0.104 0
7.80799 -0.0132795 0
7.77182 -0.133224 0
7.52695 -0.251863 0
7.30507 -0.137268 0
7.26277 -0.0822227 0
6.94564 -0.105972 0
6.75158 0.057457 0
6.75569 0.118197 0
6.64875 -0.155955 0
6.35033 0.394287 0
5.99451 0.258265 0
5.88223 0.296731 0
6.13655 -0.29659 0
5.83645 -0.241172 0
5.8799 -0.298864 0
5.72858 -0.375263 0
5.52957 -0.284043 0
5.70776 -0.430014 0
5.99858 -0.739987 0
6.06446 -0.812687 0
6.25522 -0.343105 0
6.51911 0.148472 0
6.71306 0.578412 0
6.79934 0.826829 0
6.21316 0.965473 0
5.48206 0.593912 0
4.72822 0.694217 0
3.63178 0.800535 0
2.65011 0.916051 0
1.77587 0.894201 0
1.07312 1.16895 0
0.554412 1.25543 0
0.149297 1.55529 0
0.133434 1.75287 0
0.0734069 1.99161 0
0.0974599 1.99936 0
0.0058011 2.11669 0
0.0623184 2.32049 0
0.0477526 2.46015 0
0.0617997 2.51631 0
0.0175497 2.3718 0
-0.0236486 2.59053 0
-0.0346538 2.48761 0
-0.0122016 2.32925 0
-0.0852784 2.49219 0
-0.0960838 2.51052 0
-0.0567054 2.41391 0
0.0225852 2.56049 0
0.0147854 2.44294 0
0.0452029 2.18733 0
0.0739603 2.50719 0
0.0667868 2.31267 0
0.0268927 2.33042 0
-0.0175339 2.30446 0
0.00186931 2.45131 0
0.0565426 2.08644 0
0.014531 2.10557 0
0.0633666 2.11073 0
0.124263 1.96207 0
0.126118 1.96672 0
0.1701 1.76783 0
0.135702 1.86401 0
0.120078 1.72682 0
0.0670842 1.66689 0
0.0529283 1.42379 0
0.0815936 1.23034 0
0.0506058 0.955418 0
0.036696 0.759152 0
0.0546837 0.583826 0
0.0348461 0.680355 0
0.0225978 0.592643 0
0.0126744 0.555039 0
0.0169449 0.535749 0
-0.00560544 0.464027 0
-0.0258085 0.418893 0
-0.0362818 0.416484 0
-0.0404204 0.428033 0
-0.0269523 0.419155 0
-0.0104048 0.432971 0
-0.00201626 0.397744 0
-0.0128172 0.375043 0
-0.0146829 0.379673 0
-0.00366695 0.292626 0
-0.00782472 0.21482 0
-0.0225326 0.275543 0
-0.0309599 0.174188 0
-0.0301507 0.179135 0
-0.0353465 0.167459 0
-0.00359282 0.104791 0
-0.00233057 0.121263 0
-0.00952658 0.110001 0
-0.0465989 0.0536484 0
-0.0563834 -0.0929955 0
-0.0640346 -0.152876 0
0.00367307 -0.16702 0
0.0136462 -0.0156669 0
-0.0957668 0.124308 0
-0.085542 0.127855 0
-0.0517484 0.10196 0
-0.0207758 0.0591539 0
-0.0191481 0.0491154 0
-0.0100081 0.0746157 0
-0.00429274 0.0479839 0
-0.0573409 0.0552884 0
-0.0230099 0.0527269 0
-0.00269629 0.0387414 0
-0.0317689 0.052859 0
-0.0436166 0.0400338 0
-0.0405617 0.0343078 0
-0.0329856 0.0142222 0
-0.0269599 0.00149109 0
-0.0249265 -0.0113386 0
-0.0256856 -0.0275956 0
-0.0285176 -0.0215363 0
-0.0275954 -0.0118654 0
-0.0297423 -0.0269447 0
-0.0231223 -0.0169369 0
-0.0224169 -0.0161818 0
-0.0172364 -0.0295568 0
-0.0211603 -0.0223824 0
-0.027282 -0.0436574 0
-0.0223828 -0.0303216 0
-0.0132155 -0.0260698 0
-0.0048295 -0.0486097 0
-0.00343912 -0.0343327 0
-0.0233174 -0.0188416 0
-0.0202732 -0.00541431 0
-0.0118091 -0.00332872 0
-0.0153135 -0.0023474 0
-0.0171796 -7.34576e-05 0
-0.0181691 -0.00611462 0
-0.0145818 -0.00310784 0
-0.00930969 -0.00563631 0
-0.00718252 -0.00339858 0
-0.00507735 -0.00130843 0
-0.00287786 -0.000963154 0
-0.00123976 -0.000870971 0
-0.000295559 0.000494948 0
-0.000424837 0.0017746 0
0.000287763 0.00211433 0
0.000392096 0.000923748 0
0.00166434 0.00278892 0
0.00290326 0.00430165 0
0.00138243 0.00288085 0
0.00149192 0.00293774 0
0.00203967 0.00637003 0
0.00216815 0.00370195 0
0.00131041 0.00419657 0
0.00170006 0.00340738 0
0.00108806 0.00185794 0
0.00101015 0.000450953 0
0.000691707 0.00227834 0
0.00145922 0.000974347 0
0.000793382 0.000542379 0
0.00233926 -0.000541424 0
0.0011842 -0.000400946 0
0.000470537 -0.00147704 0
0.000458247 -0.000833419 0
0 -0.00157419 0
10.0039 -0.190389 0
9.92959 -0.364668 0
10.2236 -0.265633 0
10.689 -0.463066 0
10.285 -0.233392 0
11.7159 -0.884452 0
10.8048 -0.210407 0
13.0462 -0.33757 0
11.996 -0.703951 0
12.6527 -0.856499 0
11.9544 -0.186639 0
11.0487 -0.153396 0
11.823 -0.699543 0
12.422 -0.0887077 0
12.6934 -0.669249 0
11.9095 -0.279655 0
12.6676 -0.485866 0
12.2663 -0.525679 0
12.4668 -0.382976 0
12.6226 -0.198565 0
12.1028 -0.124841 0
11.9417 -0.0487777 0
11.9054 -0.241779 0
11.4199 -0.328 0
10.8836 -0.294874 0
10.4215 -0.0960905 0
10.624 0.213441 0
10.7281 0.177456 0
12.0392 -0.275129 0
11.8824 -0.124905 0
11.3305 0.0422873 0
10.5949 0.237306 0
9.6321 0.143198 0
8.92385 0.25517 0
9.08125 0.353797 0
9.0853 0.193225 0
9.23891 0.143071 0
8.95727 0.0994572 0
8.86221 0.025167 0
8.56516 0.185935 0
8.26797 0.129222 0
8.10998 -0.0141511 0
7.94787 -0.185636 0
7.9015 -0.17412 0
7.76704 -0.0354608 0
7.78204 -0.212358 0
7.55968 -0.118303 0
7.78558 -0.0504874 0
7.84896 0.289602 0
7.91184 0.0723215 0
7.83969 0.0332649 0
7.6538 0.281466 0
7.42199 0.430203 0
7.05781 0.353878 0
6.60398 -0.26163 0
5.99969 -0.139437 0
5.87201 -0.21262 0
5.61494 -0.29545 0
5.66136 -0.471376 0
5.76351 -0.53497 0
6.15245 -0.549281 0
6.66073 -0.686359 0
7.07722 -0.240114 0
7.0003 0.0805917 0
7.33053 0.371999 0
7.63357 0.727419 0
7.81843 0.251419 0
7.88612 0.0772744 0
7.85722 0.158762 0
7.49938 0.155493 0
6.86438 0.205829 0
6.02847 0.312549 0
5.04034 0.705182 0
3.95889 0.877611 0
2.91159 1.36969 0
1.98469 1.68718 0
1.37584 1.68081 0
0.777832 1.83289 0
0.519245 2.17139 0
0.338205 2.37318 0
0.300049 2.5554 0
0.0128332 2.49004 0
-0.0319997 2.3691 0
-0.0676681 2.63989 0
-0.0966246 2.72023 0
-0.0734154 2.59378 0
-0.0871449 2.56143 0
-0.0834805 2.33561 0
-0.064984 2.32838 0
-0.0554546 2.43267 0
-0.0733446 2.1935 0
-0.00522239 2.38468 0
0.0133984 2.13052 0
-0.0103705 2.16058 0
-0.00502731 2.05652 0
-0.0412527 2.02701 0
-0.040144 2.27723 0
-0.0108783 2.18293 0
0.0205643 2.05864 0
0.0538456 2.15681 0
0.0894998 1.88755 0
0.0857327 1.68597 0
0.16401 1.5482 0
0.0177563 1.61834 0
0.0408565 1.41536 0
0.0676236 1.33923 0
0.120895 1.34298 0
0.0135687 1.05524 0
0.0487332 0.844967 0
-0.0196602 0.771947 0
0.11446 0.671779 0
0.0210723 0.550264 0
-0.0390765 0.613098 0
-0.00758891 0.570101 0
-0.000365295 0.532156 0
0.00891678 0.502522 0
-0.00437341 0.400398 0
-0.0447337 0.389104 0
-0.0621834 0.37664 0
-0.0394717 0.442873 0
-0.0209868 0.394956 0
-0.0154232 0.344982 0
-0.00737167 0.324092 0
-0.0150084 0.318427 0
-0.0165003 0.245664 0
-0.0129648 0.227904 0
-0.00993552 0.226196 0
0.00438645 0.185681 0
-0.0374327 0.2182 0
-0.0445682 0.176077 0
-0.0548631 0.086415 0
-0.033149 0.090714 0
-0.0276916 0.0938912 0
-0.0244521 0.111408 0
-0.0354634 0.0852809 0
-0.034353 0.125481 0
-0.0185274 0.0963205 0
-0.0636835 0.114897 0
-0.0525927 0.100806 0
-0.0448095 0.0903892 0
-0.0465485 0.0847012 0
-0.0402419 0.0365199 0
-0.0302829 0.0607415 0
-0.0325342 0.0894474 0
-0.0511621 0.100032 0
-0.0333429 0.0822283 0
-0.0289898 0.0855731 0
-0.0191865 0.0668637 0
-0.00757164 0.0375463 0
-0.0119454 0.0204577 0
-0.0316749 0.019619 0
-0.0288513 0.0186069 0
-0.0264957 0.000690001 0
-0.0253658 -0.0186895 0
-0.0189658 -0.0334911 0
-0.0261568 -0.0428797 0
-0.030487 -0.0319747 0
-0.0272505 -0.0233617 0
-0.0407805 -0.0329072 0
-0.0262879 -0.0278759 0
-0.0310407 -0.0377671 0
-0.0439337 -0.0186117 0
-0.0395779 -0.00881363 0
-0.0339703 -0.0407157 0
-0.0312859 -0.0294729 0
-0.0191957 -0.024477 0
-0.0107252 -0.0456467 0
-0.00932705 -0.0263805 0
-0.021987 -0.011016 0
-0.0200165 -0.00225547 0
-0.0185953 -0.000931745 0
-0.0175036 -0.000533887 0
-0.0125245 0.000667071 0
-0.0216305 -0.00201719 0
-0.0147495 0.000546009 0
-0.0104975 -0.0041379 0
-0.00900923 -0.00295036 0
-0.00624954 -0.00186096 0
-0.00338897 -0.000829188 0
-0.00168311 0.000569774 0
-0.000852396 -0.00137468 0
-0.000859673 0.00140392 0
-0.000581871 0.00428314 0
0.00160381 0.00290376 0
0.00288682 0.00338542 0